<?xml version="1.0" encoding="UTF-8"?>

<!-- generated on Thu Apr 11 15:19:32 2019 by Eclipse SUMO Version v1_0_1+0999-ba34606b5d
<configuration xmlns:xsi="http://www.w3.org/2001/XMLSchema-instance" xsi:noNamespaceSchemaLocation="http://sumo.dlr.de/xsd/sumoConfiguration.xsd">

    <input>
        <net-file value="Chj_final.net.xml"/>
        <route-files value="Chj_Demand5.rou.xml"/>
        <additional-files value="loops_actuated.xml"/>
    </input>

    <output>
        <queue-output value="ACTqueue5.xml"/>
        <summary-output value="ACTsummary5.xml"/>
        <tripinfo-output value="ACTtripinfo5.xml"/>
    </output>

    <time>
        <begin value="0"/>
        <end value="3600"/>
    </time>

    <report>
        <xml-validation value="never"/>
        <duration-log.disable value="true"/>
        <no-step-log value="true"/>
    </report>

    <traci_server>
        <remote-port value="41916"/>
    </traci_server>

    <random_number>
        <seed value="45"/>
    </random_number>

</configuration>
-->

<tripinfos xmlns:xsi="http://www.w3.org/2001/XMLSchema-instance" xsi:noNamespaceSchemaLocation="http://sumo.dlr.de/xsd/tripinfo_file.xsd">
    <tripinfo id="s1-w4_0.1" depart="7.00" departLane="OrigionS1_0" departPos="5.10" departSpeed="0.00" departDelay="-0.20" arrival="89.00" arrivalLane="DestinationW4_0" arrivalPos="242.47" arrivalSpeed="27.64" duration="82.00" routeLength="2089.17" waitingTime="0.00" waitingCount="0" stopTime="0.00" timeLoss="8.90" rerouteNo="0" devices="tripinfo_s1-w4_0.1" vType="DEFAULT_VEHTYPE" speedFactor="1.04" vaporized=""/>
    <tripinfo id="s1-w4_0.0" depart="0.00" departLane="OrigionS1_0" departPos="5.10" departSpeed="0.00" departDelay="0.00" arrival="94.00" arrivalLane="DestinationW4_0" arrivalPos="242.47" arrivalSpeed="27.51" duration="94.00" routeLength="2089.17" waitingTime="1.00" waitingCount="1" stopTime="0.00" timeLoss="20.66" rerouteNo="0" devices="tripinfo_s1-w4_0.0" vType="DEFAULT_VEHTYPE" speedFactor="1.03" vaporized=""/>
    <tripinfo id="w4-s1_0.1" depart="7.00" departLane="OrigionW4_0" departPos="5.10" departSpeed="0.00" departDelay="-0.20" arrival="95.00" arrivalLane="DestinationS1_0" arrivalPos="373.48" arrivalSpeed="28.20" duration="88.00" routeLength="2089.17" waitingTime="0.00" waitingCount="0" stopTime="0.00" timeLoss="13.36" rerouteNo="0" devices="tripinfo_w4-s1_0.1" vType="DEFAULT_VEHTYPE" speedFactor="1.02" vaporized=""/>
    <tripinfo id="w4-s1_0.2" depart="14.00" departLane="OrigionW4_0" departPos="5.10" departSpeed="0.00" departDelay="-0.40" arrival="102.00" arrivalLane="DestinationS1_0" arrivalPos="373.48" arrivalSpeed="25.48" duration="88.00" routeLength="2089.17" waitingTime="0.00" waitingCount="0" stopTime="0.00" timeLoss="7.27" rerouteNo="0" devices="tripinfo_w4-s1_0.2" vType="DEFAULT_VEHTYPE" speedFactor="0.93" vaporized=""/>
    <tripinfo id="s1-w4_0.2" depart="14.00" departLane="OrigionS1_0" departPos="5.10" departSpeed="0.00" departDelay="-0.40" arrival="106.00" arrivalLane="DestinationW4_0" arrivalPos="242.47" arrivalSpeed="24.16" duration="92.00" routeLength="2089.17" waitingTime="0.00" waitingCount="0" stopTime="0.00" timeLoss="8.06" rerouteNo="0" devices="tripinfo_s1-w4_0.2" vType="DEFAULT_VEHTYPE" speedFactor="0.90" vaporized=""/>
    <tripinfo id="w4-s1_0.3" depart="21.00" departLane="OrigionW4_0" departPos="5.10" departSpeed="0.00" departDelay="-0.60" arrival="107.00" arrivalLane="DestinationS1_1" arrivalPos="373.48" arrivalSpeed="26.70" duration="86.00" routeLength="2089.17" waitingTime="0.00" waitingCount="0" stopTime="0.00" timeLoss="8.83" rerouteNo="0" devices="tripinfo_w4-s1_0.3" vType="DEFAULT_VEHTYPE" speedFactor="0.98" vaporized=""/>
    <tripinfo id="w4-s1_0.0" depart="0.00" departLane="OrigionW4_0" departPos="5.10" departSpeed="0.00" departDelay="0.00" arrival="109.00" arrivalLane="DestinationS1_0" arrivalPos="373.48" arrivalSpeed="22.46" duration="109.00" routeLength="2089.17" waitingTime="2.00" waitingCount="1" stopTime="0.00" timeLoss="18.32" rerouteNo="0" devices="tripinfo_w4-s1_0.0" vType="DEFAULT_VEHTYPE" speedFactor="0.84" vaporized=""/>
    <tripinfo id="s1-w4_0.4" depart="28.00" departLane="OrigionS1_0" departPos="5.10" departSpeed="0.00" departDelay="-0.80" arrival="150.00" arrivalLane="DestinationW4_0" arrivalPos="242.47" arrivalSpeed="29.92" duration="122.00" routeLength="2089.17" waitingTime="36.00" waitingCount="1" stopTime="0.00" timeLoss="53.41" rerouteNo="0" devices="tripinfo_s1-w4_0.4" vType="DEFAULT_VEHTYPE" speedFactor="1.11" vaporized=""/>
    <tripinfo id="s1-w4_0.6" depart="43.00" departLane="OrigionS1_0" departPos="5.10" departSpeed="0.00" departDelay="-0.20" arrival="152.00" arrivalLane="DestinationW4_1" arrivalPos="242.47" arrivalSpeed="30.55" duration="109.00" routeLength="2089.17" waitingTime="21.00" waitingCount="1" stopTime="0.00" timeLoss="40.73" rerouteNo="0" devices="tripinfo_s1-w4_0.6" vType="DEFAULT_VEHTYPE" speedFactor="1.11" vaporized=""/>
    <tripinfo id="s1-w4_0.3" depart="21.00" departLane="OrigionS1_0" departPos="5.10" departSpeed="0.00" departDelay="-0.60" arrival="153.00" arrivalLane="DestinationW4_0" arrivalPos="242.47" arrivalSpeed="25.13" duration="132.00" routeLength="2089.17" waitingTime="35.00" waitingCount="1" stopTime="0.00" timeLoss="50.96" rerouteNo="0" devices="tripinfo_s1-w4_0.3" vType="DEFAULT_VEHTYPE" speedFactor="0.93" vaporized=""/>
    <tripinfo id="s1-w4_0.5" depart="36.00" departLane="OrigionS1_0" departPos="5.10" departSpeed="0.00" departDelay="0.00" arrival="156.00" arrivalLane="DestinationW4_0" arrivalPos="242.47" arrivalSpeed="24.26" duration="120.00" routeLength="2089.17" waitingTime="14.00" waitingCount="1" stopTime="0.00" timeLoss="34.34" rerouteNo="0" devices="tripinfo_s1-w4_0.5" vType="DEFAULT_VEHTYPE" speedFactor="0.88" vaporized=""/>
    <tripinfo id="w4-s1_0.6" depart="43.00" departLane="OrigionW4_0" departPos="5.10" departSpeed="0.00" departDelay="-0.20" arrival="157.00" arrivalLane="DestinationS1_1" arrivalPos="373.48" arrivalSpeed="29.40" duration="114.00" routeLength="2089.17" waitingTime="24.00" waitingCount="1" stopTime="0.00" timeLoss="43.69" rerouteNo="0" devices="tripinfo_w4-s1_0.6" vType="DEFAULT_VEHTYPE" speedFactor="1.08" vaporized=""/>
    <tripinfo id="w4-s1_0.5" depart="36.00" departLane="OrigionW4_0" departPos="5.10" departSpeed="0.00" departDelay="0.00" arrival="157.00" arrivalLane="DestinationS1_0" arrivalPos="373.48" arrivalSpeed="25.57" duration="121.00" routeLength="2089.17" waitingTime="23.00" waitingCount="1" stopTime="0.00" timeLoss="42.29" rerouteNo="0" devices="tripinfo_w4-s1_0.5" vType="DEFAULT_VEHTYPE" speedFactor="0.96" vaporized=""/>
    <tripinfo id="w4-s1_0.4" depart="28.00" departLane="OrigionW4_0" departPos="5.10" departSpeed="0.00" departDelay="-0.80" arrival="159.00" arrivalLane="DestinationS1_0" arrivalPos="373.48" arrivalSpeed="24.88" duration="131.00" routeLength="2089.17" waitingTime="31.00" waitingCount="1" stopTime="0.00" timeLoss="48.50" rerouteNo="0" devices="tripinfo_w4-s1_0.4" vType="DEFAULT_VEHTYPE" speedFactor="0.91" vaporized=""/>
    <tripinfo id="w4-s1_0.8" depart="57.00" departLane="OrigionW4_0" departPos="5.10" departSpeed="0.00" departDelay="-0.60" arrival="176.00" arrivalLane="DestinationS1_0" arrivalPos="373.48" arrivalSpeed="29.27" duration="119.00" routeLength="2089.17" waitingTime="27.00" waitingCount="1" stopTime="0.00" timeLoss="48.37" rerouteNo="0" devices="tripinfo_w4-s1_0.8" vType="DEFAULT_VEHTYPE" speedFactor="1.08" vaporized=""/>
    <tripinfo id="s1-w4_0.7" depart="50.00" departLane="OrigionS1_0" departPos="5.10" departSpeed="0.00" departDelay="-0.40" arrival="177.00" arrivalLane="DestinationW4_0" arrivalPos="242.47" arrivalSpeed="26.01" duration="127.00" routeLength="2089.17" waitingTime="28.00" waitingCount="1" stopTime="0.00" timeLoss="46.66" rerouteNo="0" devices="tripinfo_s1-w4_0.7" vType="DEFAULT_VEHTYPE" speedFactor="0.94" vaporized=""/>
    <tripinfo id="e5-e1_0.0" depart="0.00" departLane="OrigionE5_0" departPos="5.10" departSpeed="0.00" departDelay="0.00" arrival="177.00" arrivalLane="DestinationE1_0" arrivalPos="250.56" arrivalSpeed="20.90" duration="177.00" routeLength="2162.05" waitingTime="32.00" waitingCount="3" stopTime="0.00" timeLoss="68.32" rerouteNo="0" devices="tripinfo_e5-e1_0.0" vType="DEFAULT_VEHTYPE" speedFactor="1.00" vaporized=""/>
    <tripinfo id="w4-s1_0.9" depart="64.00" departLane="OrigionW4_0" departPos="5.10" departSpeed="0.00" departDelay="-0.80" arrival="178.00" arrivalLane="DestinationS1_1" arrivalPos="373.48" arrivalSpeed="28.54" duration="114.00" routeLength="2089.17" waitingTime="22.00" waitingCount="1" stopTime="0.00" timeLoss="42.78" rerouteNo="0" devices="tripinfo_w4-s1_0.9" vType="DEFAULT_VEHTYPE" speedFactor="1.07" vaporized=""/>
    <tripinfo id="e5-e1_0.1" depart="12.00" departLane="OrigionE5_0" departPos="5.10" departSpeed="0.00" departDelay="0.00" arrival="179.00" arrivalLane="DestinationE1_0" arrivalPos="250.56" arrivalSpeed="21.30" duration="167.00" routeLength="2162.05" waitingTime="19.00" waitingCount="2" stopTime="0.00" timeLoss="56.02" rerouteNo="0" devices="tripinfo_e5-e1_0.1" vType="DEFAULT_VEHTYPE" speedFactor="0.98" vaporized=""/>
    <tripinfo id="s1-w4_0.9" depart="64.00" departLane="OrigionS1_0" departPos="5.10" departSpeed="0.00" departDelay="-0.80" arrival="180.00" arrivalLane="DestinationW4_1" arrivalPos="242.47" arrivalSpeed="26.36" duration="116.00" routeLength="2089.17" waitingTime="17.00" waitingCount="1" stopTime="0.00" timeLoss="39.53" rerouteNo="0" devices="tripinfo_s1-w4_0.9" vType="DEFAULT_VEHTYPE" speedFactor="0.99" vaporized=""/>
    <tripinfo id="e5-e1_0.2" depart="24.00" departLane="OrigionE5_0" departPos="5.10" departSpeed="0.00" departDelay="0.00" arrival="180.00" arrivalLane="DestinationE1_0" arrivalPos="250.56" arrivalSpeed="20.48" duration="156.00" routeLength="2162.05" waitingTime="6.00" waitingCount="2" stopTime="0.00" timeLoss="45.38" rerouteNo="0" devices="tripinfo_e5-e1_0.2" vType="DEFAULT_VEHTYPE" speedFactor="0.98" vaporized=""/>
    <tripinfo id="s1-w4_0.12" depart="86.00" departLane="OrigionS1_0" departPos="5.10" departSpeed="0.00" departDelay="-0.40" arrival="181.00" arrivalLane="DestinationW4_1" arrivalPos="242.47" arrivalSpeed="29.60" duration="95.00" routeLength="2089.17" waitingTime="0.00" waitingCount="0" stopTime="0.00" timeLoss="24.84" rerouteNo="0" devices="tripinfo_s1-w4_0.12" vType="DEFAULT_VEHTYPE" speedFactor="1.08" vaporized=""/>
    <tripinfo id="s1-w4_0.8" depart="57.00" departLane="OrigionS1_0" departPos="5.10" departSpeed="0.00" departDelay="-0.60" arrival="181.00" arrivalLane="DestinationW4_0" arrivalPos="242.47" arrivalSpeed="24.09" duration="124.00" routeLength="2089.17" waitingTime="20.00" waitingCount="1" stopTime="0.00" timeLoss="37.47" rerouteNo="0" devices="tripinfo_s1-w4_0.8" vType="DEFAULT_VEHTYPE" speedFactor="0.88" vaporized=""/>
    <tripinfo id="s1-w4_0.10" depart="72.00" departLane="OrigionS1_0" departPos="5.10" departSpeed="0.00" departDelay="0.00" arrival="182.00" arrivalLane="DestinationW4_0" arrivalPos="242.47" arrivalSpeed="23.88" duration="110.00" routeLength="2089.17" waitingTime="1.00" waitingCount="1" stopTime="0.00" timeLoss="23.25" rerouteNo="0" devices="tripinfo_s1-w4_0.10" vType="DEFAULT_VEHTYPE" speedFactor="0.87" vaporized=""/>
    <tripinfo id="w4-s1_0.11" depart="79.00" departLane="OrigionW4_0" departPos="5.10" departSpeed="0.00" departDelay="-0.20" arrival="182.00" arrivalLane="DestinationS1_1" arrivalPos="373.48" arrivalSpeed="26.82" duration="103.00" routeLength="2089.17" waitingTime="8.00" waitingCount="1" stopTime="0.00" timeLoss="27.65" rerouteNo="0" devices="tripinfo_w4-s1_0.11" vType="DEFAULT_VEHTYPE" speedFactor="1.01" vaporized=""/>
    <tripinfo id="e5-e1_0.3" depart="36.00" departLane="OrigionE5_0" departPos="5.10" departSpeed="0.00" departDelay="0.00" arrival="182.00" arrivalLane="DestinationE1_0" arrivalPos="250.56" arrivalSpeed="21.33" duration="146.00" routeLength="2162.05" waitingTime="3.00" waitingCount="1" stopTime="0.00" timeLoss="35.84" rerouteNo="0" devices="tripinfo_e5-e1_0.3" vType="DEFAULT_VEHTYPE" speedFactor="0.98" vaporized=""/>
    <tripinfo id="s1-w4_0.13" depart="93.00" departLane="OrigionS1_0" departPos="5.10" departSpeed="0.00" departDelay="-0.60" arrival="184.00" arrivalLane="DestinationW4_1" arrivalPos="242.47" arrivalSpeed="25.48" duration="91.00" routeLength="2089.17" waitingTime="0.00" waitingCount="0" stopTime="0.00" timeLoss="11.15" rerouteNo="0" devices="tripinfo_s1-w4_0.13" vType="DEFAULT_VEHTYPE" speedFactor="0.95" vaporized=""/>
    <tripinfo id="w4-s1_0.12" depart="86.00" departLane="OrigionW4_0" departPos="5.10" departSpeed="0.00" departDelay="-0.40" arrival="184.00" arrivalLane="DestinationS1_1" arrivalPos="373.48" arrivalSpeed="26.25" duration="98.00" routeLength="2089.17" waitingTime="0.00" waitingCount="0" stopTime="0.00" timeLoss="20.93" rerouteNo="0" devices="tripinfo_w4-s1_0.12" vType="DEFAULT_VEHTYPE" speedFactor="0.98" vaporized=""/>
    <tripinfo id="w4-s1_0.7" depart="50.00" departLane="OrigionW4_0" departPos="5.10" departSpeed="0.00" departDelay="-0.40" arrival="184.00" arrivalLane="DestinationS1_0" arrivalPos="373.48" arrivalSpeed="24.48" duration="134.00" routeLength="2089.17" waitingTime="32.00" waitingCount="1" stopTime="0.00" timeLoss="51.16" rerouteNo="0" devices="tripinfo_w4-s1_0.7" vType="DEFAULT_VEHTYPE" speedFactor="0.92" vaporized=""/>
    <tripinfo id="e5-e1_0.4" depart="48.00" departLane="OrigionE5_0" departPos="5.10" departSpeed="0.00" departDelay="0.00" arrival="184.00" arrivalLane="DestinationE1_0" arrivalPos="250.56" arrivalSpeed="20.02" duration="136.00" routeLength="2162.05" waitingTime="1.00" waitingCount="1" stopTime="0.00" timeLoss="19.12" rerouteNo="0" devices="tripinfo_e5-e1_0.4" vType="DEFAULT_VEHTYPE" speedFactor="0.92" vaporized=""/>
    <tripinfo id="w4-s1_0.10" depart="72.00" departLane="OrigionW4_0" departPos="5.10" departSpeed="0.00" departDelay="0.00" arrival="185.00" arrivalLane="DestinationS1_0" arrivalPos="373.48" arrivalSpeed="28.15" duration="113.00" routeLength="2089.17" waitingTime="11.00" waitingCount="2" stopTime="0.00" timeLoss="46.90" rerouteNo="0" devices="tripinfo_w4-s1_0.10" vType="DEFAULT_VEHTYPE" speedFactor="1.14" vaporized=""/>
    <tripinfo id="s1-w4_0.11" depart="79.00" departLane="OrigionS1_0" departPos="5.10" departSpeed="0.00" departDelay="-0.20" arrival="186.00" arrivalLane="DestinationW4_0" arrivalPos="242.47" arrivalSpeed="23.69" duration="107.00" routeLength="2089.17" waitingTime="0.00" waitingCount="0" stopTime="0.00" timeLoss="18.54" rerouteNo="0" devices="tripinfo_s1-w4_0.11" vType="DEFAULT_VEHTYPE" speedFactor="0.86" vaporized=""/>
    <tripinfo id="w4-s1_0.14" depart="100.00" departLane="OrigionW4_0" departPos="5.10" departSpeed="0.00" departDelay="-0.80" arrival="189.00" arrivalLane="DestinationS1_1" arrivalPos="373.48" arrivalSpeed="26.21" duration="89.00" routeLength="2089.17" waitingTime="0.00" waitingCount="0" stopTime="0.00" timeLoss="9.74" rerouteNo="0" devices="tripinfo_w4-s1_0.14" vType="DEFAULT_VEHTYPE" speedFactor="0.96" vaporized=""/>
    <tripinfo id="w4-s1_0.15" depart="108.00" departLane="OrigionW4_0" departPos="5.10" departSpeed="0.00" departDelay="0.00" arrival="190.00" arrivalLane="DestinationS1_1" arrivalPos="373.48" arrivalSpeed="27.50" duration="82.00" routeLength="2089.17" waitingTime="0.00" waitingCount="0" stopTime="0.00" timeLoss="14.92" rerouteNo="0" devices="tripinfo_w4-s1_0.15" vType="DEFAULT_VEHTYPE" speedFactor="1.13" vaporized=""/>
    <tripinfo id="w4-s1_0.13" depart="93.00" departLane="OrigionW4_0" departPos="5.10" departSpeed="0.00" departDelay="-0.60" arrival="190.00" arrivalLane="DestinationS1_0" arrivalPos="373.48" arrivalSpeed="23.28" duration="97.00" routeLength="2089.17" waitingTime="0.00" waitingCount="0" stopTime="0.00" timeLoss="11.07" rerouteNo="0" devices="tripinfo_w4-s1_0.13" vType="DEFAULT_VEHTYPE" speedFactor="0.88" vaporized=""/>
    <tripinfo id="e5-e1_0.5" depart="60.00" departLane="OrigionE5_0" departPos="5.10" departSpeed="0.00" departDelay="0.00" arrival="194.00" arrivalLane="DestinationE1_0" arrivalPos="250.56" arrivalSpeed="18.20" duration="134.00" routeLength="2162.05" waitingTime="0.00" waitingCount="0" stopTime="0.00" timeLoss="10.28" rerouteNo="0" devices="tripinfo_e5-e1_0.5" vType="DEFAULT_VEHTYPE" speedFactor="0.87" vaporized=""/>
    <tripinfo id="n4-w2_0.1" depart="7.00" departLane="OrigionN4_0" departPos="5.10" departSpeed="0.00" departDelay="-0.20" arrival="197.00" arrivalLane="DestinationW2_0" arrivalPos="782.62" arrivalSpeed="25.25" duration="190.00" routeLength="3590.24" waitingTime="30.00" waitingCount="1" stopTime="0.00" timeLoss="56.60" rerouteNo="0" devices="tripinfo_n4-w2_0.1" vType="DEFAULT_VEHTYPE" speedFactor="1.15" vaporized=""/>
    <tripinfo id="n4-w2_0.0" depart="0.00" departLane="OrigionN4_0" departPos="5.10" departSpeed="0.00" departDelay="0.00" arrival="202.00" arrivalLane="DestinationW2_0" arrivalPos="782.62" arrivalSpeed="22.91" duration="202.00" routeLength="3590.24" waitingTime="27.00" waitingCount="1" stopTime="0.00" timeLoss="57.06" rerouteNo="0" devices="tripinfo_n4-w2_0.0" vType="DEFAULT_VEHTYPE" speedFactor="1.07" vaporized=""/>
    <tripinfo id="w8-e4_0.0" depart="0.00" departLane="OrigionW8_0" departPos="5.10" departSpeed="0.00" departDelay="0.00" arrival="229.00" arrivalLane="DestinationE4_0" arrivalPos="384.36" arrivalSpeed="22.11" duration="229.00" routeLength="3459.08" waitingTime="40.00" waitingCount="3" stopTime="0.00" timeLoss="78.81" rerouteNo="0" devices="tripinfo_w8-e4_0.0" vType="DEFAULT_VEHTYPE" speedFactor="1.04" vaporized=""/>
    <tripinfo id="w8-e4_0.1" depart="7.00" departLane="OrigionW8_0" departPos="5.10" departSpeed="0.00" departDelay="-0.20" arrival="231.00" arrivalLane="DestinationE4_0" arrivalPos="384.36" arrivalSpeed="22.46" duration="224.00" routeLength="3459.08" waitingTime="35.00" waitingCount="3" stopTime="0.00" timeLoss="77.66" rerouteNo="0" devices="tripinfo_w8-e4_0.1" vType="DEFAULT_VEHTYPE" speedFactor="1.07" vaporized=""/>
    <tripinfo id="n4-w2_0.2" depart="14.00" departLane="OrigionN4_0" departPos="5.10" departSpeed="0.00" departDelay="-0.40" arrival="232.00" arrivalLane="DestinationW2_0" arrivalPos="782.62" arrivalSpeed="23.52" duration="218.00" routeLength="3590.24" waitingTime="51.00" waitingCount="1" stopTime="0.00" timeLoss="73.71" rerouteNo="0" devices="tripinfo_n4-w2_0.2" vType="DEFAULT_VEHTYPE" speedFactor="1.07" vaporized=""/>
    <tripinfo id="w8-e4_0.2" depart="14.00" departLane="OrigionW8_0" departPos="5.10" departSpeed="0.00" departDelay="-0.40" arrival="233.00" arrivalLane="DestinationE4_0" arrivalPos="384.36" arrivalSpeed="22.68" duration="219.00" routeLength="3459.08" waitingTime="23.00" waitingCount="3" stopTime="0.00" timeLoss="70.26" rerouteNo="0" devices="tripinfo_w8-e4_0.2" vType="DEFAULT_VEHTYPE" speedFactor="1.05" vaporized=""/>
    <tripinfo id="n4-w2_0.4" depart="28.00" departLane="OrigionN4_0" departPos="5.10" departSpeed="0.00" departDelay="-0.80" arrival="234.00" arrivalLane="DestinationW2_0" arrivalPos="782.62" arrivalSpeed="26.69" duration="206.00" routeLength="3590.24" waitingTime="49.00" waitingCount="1" stopTime="0.00" timeLoss="80.05" rerouteNo="0" devices="tripinfo_n4-w2_0.4" vType="DEFAULT_VEHTYPE" speedFactor="1.23" vaporized=""/>
    <tripinfo id="w4-s1_0.16" depart="115.00" departLane="OrigionW4_0" departPos="5.10" departSpeed="0.00" departDelay="-0.20" arrival="235.00" arrivalLane="DestinationS1_0" arrivalPos="373.48" arrivalSpeed="28.73" duration="120.00" routeLength="2089.17" waitingTime="31.00" waitingCount="1" stopTime="0.00" timeLoss="48.26" rerouteNo="0" devices="tripinfo_w4-s1_0.16" vType="DEFAULT_VEHTYPE" speedFactor="1.05" vaporized=""/>
    <tripinfo id="w4-s1_0.17" depart="122.00" departLane="OrigionW4_0" departPos="5.10" departSpeed="0.00" departDelay="-0.40" arrival="236.00" arrivalLane="DestinationS1_1" arrivalPos="373.48" arrivalSpeed="28.07" duration="114.00" routeLength="2089.17" waitingTime="20.00" waitingCount="1" stopTime="0.00" timeLoss="40.78" rerouteNo="0" devices="tripinfo_w4-s1_0.17" vType="DEFAULT_VEHTYPE" speedFactor="1.03" vaporized=""/>
    <tripinfo id="w8-e4_0.3" depart="21.00" departLane="OrigionW8_0" departPos="5.10" departSpeed="0.00" departDelay="-0.60" arrival="236.00" arrivalLane="DestinationE4_0" arrivalPos="384.36" arrivalSpeed="20.60" duration="215.00" routeLength="3459.08" waitingTime="10.00" waitingCount="2" stopTime="0.00" timeLoss="54.21" rerouteNo="0" devices="tripinfo_w8-e4_0.3" vType="DEFAULT_VEHTYPE" speedFactor="0.97" vaporized=""/>
    <tripinfo id="w8-e4_0.4" depart="28.00" departLane="OrigionW8_0" departPos="5.10" departSpeed="0.00" departDelay="-0.80" arrival="238.00" arrivalLane="DestinationE4_0" arrivalPos="384.36" arrivalSpeed="19.44" duration="210.00" routeLength="3459.08" waitingTime="2.00" waitingCount="1" stopTime="0.00" timeLoss="42.05" rerouteNo="0" devices="tripinfo_w8-e4_0.4" vType="DEFAULT_VEHTYPE" speedFactor="0.93" vaporized=""/>
    <tripinfo id="w8-e4_0.5" depart="36.00" departLane="OrigionW8_0" departPos="5.10" departSpeed="0.00" departDelay="0.00" arrival="240.00" arrivalLane="DestinationE4_0" arrivalPos="384.36" arrivalSpeed="22.82" duration="204.00" routeLength="3459.08" waitingTime="0.00" waitingCount="0" stopTime="0.00" timeLoss="68.44" rerouteNo="0" devices="tripinfo_w8-e4_0.5" vType="DEFAULT_VEHTYPE" speedFactor="1.15" vaporized=""/>
    <tripinfo id="w8-e4_0.6" depart="43.00" departLane="OrigionW8_0" departPos="5.10" departSpeed="0.00" departDelay="-0.20" arrival="241.00" arrivalLane="DestinationE4_0" arrivalPos="384.36" arrivalSpeed="22.50" duration="198.00" routeLength="3459.08" waitingTime="0.00" waitingCount="0" stopTime="0.00" timeLoss="56.06" rerouteNo="0" devices="tripinfo_w8-e4_0.6" vType="DEFAULT_VEHTYPE" speedFactor="1.10" vaporized=""/>
    <tripinfo id="w8-e4_0.7" depart="50.00" departLane="OrigionW8_0" departPos="5.10" departSpeed="0.00" departDelay="-0.40" arrival="243.00" arrivalLane="DestinationE4_0" arrivalPos="384.36" arrivalSpeed="22.84" duration="193.00" routeLength="3459.08" waitingTime="0.00" waitingCount="0" stopTime="0.00" timeLoss="42.34" rerouteNo="0" devices="tripinfo_w8-e4_0.7" vType="DEFAULT_VEHTYPE" speedFactor="1.04" vaporized=""/>
    <tripinfo id="w8-e4_0.8" depart="57.00" departLane="OrigionW8_0" departPos="5.10" departSpeed="0.00" departDelay="-0.60" arrival="244.00" arrivalLane="DestinationE4_0" arrivalPos="384.36" arrivalSpeed="23.92" duration="187.00" routeLength="3459.08" waitingTime="0.00" waitingCount="0" stopTime="0.00" timeLoss="52.15" rerouteNo="0" devices="tripinfo_w8-e4_0.8" vType="DEFAULT_VEHTYPE" speedFactor="1.16" vaporized=""/>
    <tripinfo id="w8-e4_0.9" depart="64.00" departLane="OrigionW8_0" departPos="5.10" departSpeed="0.00" departDelay="-0.80" arrival="246.00" arrivalLane="DestinationE4_0" arrivalPos="384.36" arrivalSpeed="25.95" duration="182.00" routeLength="3459.08" waitingTime="0.00" waitingCount="0" stopTime="0.00" timeLoss="49.09" rerouteNo="0" devices="tripinfo_w8-e4_0.9" vType="DEFAULT_VEHTYPE" speedFactor="1.18" vaporized=""/>
    <tripinfo id="w8-e4_0.10" depart="72.00" departLane="OrigionW8_0" departPos="5.10" departSpeed="0.00" departDelay="0.00" arrival="247.00" arrivalLane="DestinationE4_0" arrivalPos="384.36" arrivalSpeed="24.19" duration="175.00" routeLength="3459.08" waitingTime="0.00" waitingCount="0" stopTime="0.00" timeLoss="38.27" rerouteNo="0" devices="tripinfo_w8-e4_0.10" vType="DEFAULT_VEHTYPE" speedFactor="1.14" vaporized=""/>
    <tripinfo id="w8-e4_0.11" depart="79.00" departLane="OrigionW8_0" departPos="5.10" departSpeed="0.00" departDelay="-0.20" arrival="249.00" arrivalLane="DestinationE4_0" arrivalPos="384.36" arrivalSpeed="26.96" duration="170.00" routeLength="3459.08" waitingTime="0.00" waitingCount="0" stopTime="0.00" timeLoss="47.50" rerouteNo="0" devices="tripinfo_w8-e4_0.11" vType="DEFAULT_VEHTYPE" speedFactor="1.28" vaporized=""/>
    <tripinfo id="w2-n6_0.3" depart="36.00" departLane="OrigionW2_0" departPos="5.10" departSpeed="0.00" departDelay="0.00" arrival="257.00" arrivalLane="DestinationN6_0" arrivalPos="784.86" arrivalSpeed="20.48" duration="221.00" routeLength="4002.77" waitingTime="10.00" waitingCount="2" stopTime="0.00" timeLoss="53.78" rerouteNo="0" devices="tripinfo_w2-n6_0.3" vType="DEFAULT_VEHTYPE" speedFactor="0.95" vaporized=""/>
    <tripinfo id="e5-e1_0.6" depart="72.00" departLane="OrigionE5_0" departPos="5.10" departSpeed="0.00" departDelay="0.00" arrival="257.00" arrivalLane="DestinationE1_0" arrivalPos="250.56" arrivalSpeed="21.91" duration="185.00" routeLength="2162.05" waitingTime="39.00" waitingCount="3" stopTime="0.00" timeLoss="79.05" rerouteNo="0" devices="tripinfo_e5-e1_0.6" vType="DEFAULT_VEHTYPE" speedFactor="1.02" vaporized=""/>
    <tripinfo id="w2-n6_0.4" depart="48.00" departLane="OrigionW2_0" departPos="5.10" departSpeed="0.00" departDelay="0.00" arrival="258.00" arrivalLane="DestinationN6_0" arrivalPos="784.86" arrivalSpeed="22.73" duration="210.00" routeLength="4002.77" waitingTime="7.00" waitingCount="1" stopTime="0.00" timeLoss="65.90" rerouteNo="0" devices="tripinfo_w2-n6_0.4" vType="DEFAULT_VEHTYPE" speedFactor="1.10" vaporized=""/>
    <tripinfo id="e5-e1_0.7" depart="84.00" departLane="OrigionE5_0" departPos="5.10" departSpeed="0.00" departDelay="0.00" arrival="259.00" arrivalLane="DestinationE1_0" arrivalPos="250.56" arrivalSpeed="20.47" duration="175.00" routeLength="2162.05" waitingTime="24.00" waitingCount="2" stopTime="0.00" timeLoss="61.22" rerouteNo="0" devices="tripinfo_e5-e1_0.7" vType="DEFAULT_VEHTYPE" speedFactor="0.95" vaporized=""/>
    <tripinfo id="w5-w9_0.0" depart="0.00" departLane="OrigionW5_0" departPos="5.10" departSpeed="0.00" departDelay="0.00" arrival="262.00" arrivalLane="DestinationW9_0" arrivalPos="225.67" arrivalSpeed="30.56" duration="262.00" routeLength="2764.84" waitingTime="50.00" waitingCount="3" stopTime="0.00" timeLoss="100.78" rerouteNo="0" devices="tripinfo_w5-w9_0.0" vType="DEFAULT_VEHTYPE" speedFactor="1.12" vaporized=""/>
    <tripinfo id="w2-n6_0.0" depart="0.00" departLane="OrigionW2_0" departPos="5.10" departSpeed="0.00" departDelay="0.00" arrival="262.00" arrivalLane="DestinationN6_0" arrivalPos="784.86" arrivalSpeed="19.87" duration="262.00" routeLength="4002.77" waitingTime="44.00" waitingCount="3" stopTime="0.00" timeLoss="93.68" rerouteNo="0" devices="tripinfo_w2-n6_0.0" vType="DEFAULT_VEHTYPE" speedFactor="0.94" vaporized=""/>
    <tripinfo id="e5-e1_0.8" depart="96.00" departLane="OrigionE5_0" departPos="5.10" departSpeed="0.00" departDelay="0.00" arrival="262.00" arrivalLane="DestinationE1_0" arrivalPos="250.56" arrivalSpeed="18.69" duration="166.00" routeLength="2162.05" waitingTime="6.00" waitingCount="2" stopTime="0.00" timeLoss="40.43" rerouteNo="0" devices="tripinfo_e5-e1_0.8" vType="DEFAULT_VEHTYPE" speedFactor="0.86" vaporized=""/>
    <tripinfo id="e5-e1_0.9" depart="108.00" departLane="OrigionE5_0" departPos="5.10" departSpeed="0.00" departDelay="0.00" arrival="263.00" arrivalLane="DestinationE1_0" arrivalPos="250.56" arrivalSpeed="20.11" duration="155.00" routeLength="2162.05" waitingTime="5.00" waitingCount="2" stopTime="0.00" timeLoss="53.54" rerouteNo="0" devices="tripinfo_e5-e1_0.9" vType="DEFAULT_VEHTYPE" speedFactor="1.06" vaporized=""/>
    <tripinfo id="e5-e1_0.10" depart="120.00" departLane="OrigionE5_0" departPos="5.10" departSpeed="0.00" departDelay="0.00" arrival="265.00" arrivalLane="DestinationE1_0" arrivalPos="250.56" arrivalSpeed="21.94" duration="145.00" routeLength="2162.05" waitingTime="2.00" waitingCount="1" stopTime="0.00" timeLoss="46.45" rerouteNo="0" devices="tripinfo_e5-e1_0.10" vType="DEFAULT_VEHTYPE" speedFactor="1.10" vaporized=""/>
    <tripinfo id="e5-e1_0.11" depart="132.00" departLane="OrigionE5_0" departPos="5.10" departSpeed="0.00" departDelay="0.00" arrival="266.00" arrivalLane="DestinationE1_0" arrivalPos="250.56" arrivalSpeed="20.70" duration="134.00" routeLength="2162.05" waitingTime="1.00" waitingCount="1" stopTime="0.00" timeLoss="30.91" rerouteNo="0" devices="tripinfo_e5-e1_0.11" vType="DEFAULT_VEHTYPE" speedFactor="1.05" vaporized=""/>
    <tripinfo id="w2-n6_0.1" depart="12.00" departLane="OrigionW2_0" departPos="5.10" departSpeed="0.00" departDelay="0.00" arrival="268.00" arrivalLane="DestinationN6_0" arrivalPos="784.86" arrivalSpeed="19.24" duration="256.00" routeLength="4002.77" waitingTime="28.00" waitingCount="3" stopTime="0.00" timeLoss="74.26" rerouteNo="0" devices="tripinfo_w2-n6_0.1" vType="DEFAULT_VEHTYPE" speedFactor="0.87" vaporized=""/>
    <tripinfo id="e5-e1_0.12" depart="144.00" departLane="OrigionE5_0" departPos="5.10" departSpeed="0.00" departDelay="0.00" arrival="268.00" arrivalLane="DestinationE1_0" arrivalPos="250.56" arrivalSpeed="22.35" duration="124.00" routeLength="2162.05" waitingTime="0.00" waitingCount="0" stopTime="0.00" timeLoss="21.23" rerouteNo="0" devices="tripinfo_e5-e1_0.12" vType="DEFAULT_VEHTYPE" speedFactor="1.05" vaporized=""/>
    <tripinfo id="w2-n6_0.2" depart="24.00" departLane="OrigionW2_0" departPos="5.10" departSpeed="0.00" departDelay="0.00" arrival="270.00" arrivalLane="DestinationN6_0" arrivalPos="784.86" arrivalSpeed="18.97" duration="246.00" routeLength="4002.77" waitingTime="15.00" waitingCount="2" stopTime="0.00" timeLoss="61.34" rerouteNo="0" devices="tripinfo_w2-n6_0.2" vType="DEFAULT_VEHTYPE" speedFactor="0.86" vaporized=""/>
    <tripinfo id="s7-n4_0.6" depart="43.00" departLane="OrigionS7_0" departPos="5.10" departSpeed="0.00" departDelay="-0.20" arrival="270.00" arrivalLane="DestinationN4_0" arrivalPos="325.33" arrivalSpeed="16.07" duration="227.00" routeLength="4920.39" waitingTime="9.00" waitingCount="1" stopTime="0.00" timeLoss="63.72" rerouteNo="0" devices="tripinfo_s7-n4_0.6" vType="DEFAULT_VEHTYPE" speedFactor="1.16" vaporized=""/>