<?xml version="1.0" encoding="UTF-8"?>

<!-- generated on Wed Jan  9 21:51:04 2019 by Eclipse SUMO Version v1_0_1+0999-ba34606b5d
<configuration xmlns:xsi="http://www.w3.org/2001/XMLSchema-instance" xsi:noNamespaceSchemaLocation="http://sumo.dlr.de/xsd/sumoConfiguration.xsd">

    <input>
        <net-file value="Chj_final.net.xml"/>
        <route-files value="Chj_Demand7.rou.xml"/>
        <additional-files value="loops.xml"/>
    </input>

    <output>
        <queue-output value="FTCqueue7.xml"/>
        <summary-output value="FTCsummary7.xml"/>
        <tripinfo-output value="FTCtripinfo7.xml"/>
    </output>

    <time>
        <begin value="0"/>
        <end value="3600"/>
    </time>

    <report>
        <xml-validation value="never"/>
        <duration-log.disable value="true"/>
        <no-step-log value="true"/>
    </report>

    <traci_server>
        <remote-port value="49103"/>
    </traci_server>

    <random_number>
        <seed value="56"/>
    </random_number>

</configuration>
-->

<tripinfos xmlns:xsi="http://www.w3.org/2001/XMLSchema-instance" xsi:noNamespaceSchemaLocation="http://sumo.dlr.de/xsd/tripinfo_file.xsd">
    <tripinfo id="e5-e1_0.0" depart="0.00" departLane="OrigionE5_0" departPos="5.10" departSpeed="0.00" departDelay="0.00" arrival="123.00" arrivalLane="DestinationE1_0" arrivalPos="250.56" arrivalSpeed="23.60" duration="123.00" routeLength="2162.05" waitingTime="0.00" waitingCount="0" stopTime="0.00" timeLoss="21.41" rerouteNo="0" devices="tripinfo_e5-e1_0.0" vType="DEFAULT_VEHTYPE" speedFactor="1.07" vaporized=""/>
    <tripinfo id="s1-w4_0.2" depart="10.00" departLane="OrigionS1_0" departPos="5.10" departSpeed="0.00" departDelay="-0.28" arrival="139.00" arrivalLane="DestinationW4_0" arrivalPos="242.47" arrivalSpeed="31.58" duration="129.00" routeLength="2089.17" waitingTime="33.00" waitingCount="2" stopTime="0.00" timeLoss="64.37" rerouteNo="0" devices="tripinfo_s1-w4_0.2" vType="DEFAULT_VEHTYPE" speedFactor="1.16" vaporized=""/>
    <tripinfo id="s1-w4_0.1" depart="5.00" departLane="OrigionS1_0" departPos="5.10" departSpeed="0.00" departDelay="-0.14" arrival="141.00" arrivalLane="DestinationW4_0" arrivalPos="242.47" arrivalSpeed="31.00" duration="136.00" routeLength="2089.17" waitingTime="36.00" waitingCount="2" stopTime="0.00" timeLoss="68.34" rerouteNo="0" devices="tripinfo_s1-w4_0.1" vType="DEFAULT_VEHTYPE" speedFactor="1.12" vaporized=""/>
    <tripinfo id="s1-w4_0.3" depart="15.00" departLane="OrigionS1_0" departPos="5.10" departSpeed="0.00" departDelay="-0.43" arrival="142.00" arrivalLane="DestinationW4_1" arrivalPos="242.47" arrivalSpeed="29.81" duration="127.00" routeLength="2089.17" waitingTime="29.00" waitingCount="2" stopTime="0.00" timeLoss="58.50" rerouteNo="0" devices="tripinfo_s1-w4_0.3" vType="DEFAULT_VEHTYPE" speedFactor="1.11" vaporized=""/>
    <tripinfo id="s1-w4_0.0" depart="0.00" departLane="OrigionS1_0" departPos="5.10" departSpeed="0.00" departDelay="0.00" arrival="143.00" arrivalLane="DestinationW4_0" arrivalPos="242.47" arrivalSpeed="30.44" duration="143.00" routeLength="2089.17" waitingTime="38.00" waitingCount="2" stopTime="0.00" timeLoss="74.90" rerouteNo="0" devices="tripinfo_s1-w4_0.0" vType="DEFAULT_VEHTYPE" speedFactor="1.12" vaporized=""/>
    <tripinfo id="w4-s1_0.0" depart="0.00" departLane="OrigionW4_0" departPos="5.10" departSpeed="0.00" departDelay="0.00" arrival="143.00" arrivalLane="DestinationS1_0" arrivalPos="373.48" arrivalSpeed="32.18" duration="143.00" routeLength="2089.17" waitingTime="45.00" waitingCount="2" stopTime="0.00" timeLoss="78.81" rerouteNo="0" devices="tripinfo_w4-s1_0.0" vType="DEFAULT_VEHTYPE" speedFactor="1.17" vaporized=""/>
    <tripinfo id="s1-w4_0.4" depart="20.00" departLane="OrigionS1_0" departPos="5.10" departSpeed="0.00" departDelay="-0.57" arrival="145.00" arrivalLane="DestinationW4_0" arrivalPos="242.47" arrivalSpeed="27.48" duration="125.00" routeLength="2089.17" waitingTime="24.00" waitingCount="1" stopTime="0.00" timeLoss="50.54" rerouteNo="0" devices="tripinfo_s1-w4_0.4" vType="DEFAULT_VEHTYPE" speedFactor="1.02" vaporized=""/>
    <tripinfo id="w4-s1_0.1" depart="5.00" departLane="OrigionW4_0" departPos="5.10" departSpeed="0.00" departDelay="-0.14" arrival="148.00" arrivalLane="DestinationS1_0" arrivalPos="373.48" arrivalSpeed="25.60" duration="143.00" routeLength="2089.17" waitingTime="36.00" waitingCount="2" stopTime="0.00" timeLoss="64.85" rerouteNo="0" devices="tripinfo_w4-s1_0.1" vType="DEFAULT_VEHTYPE" speedFactor="0.96" vaporized=""/>
    <tripinfo id="w4-s1_0.4" depart="20.00" departLane="OrigionW4_0" departPos="5.10" departSpeed="0.00" departDelay="-0.57" arrival="150.00" arrivalLane="DestinationS1_0" arrivalPos="373.48" arrivalSpeed="28.38" duration="130.00" routeLength="2089.17" waitingTime="18.00" waitingCount="1" stopTime="0.00" timeLoss="56.79" rerouteNo="0" devices="tripinfo_w4-s1_0.4" vType="DEFAULT_VEHTYPE" speedFactor="1.04" vaporized=""/>
    <tripinfo id="w4-s1_0.3" depart="15.00" departLane="OrigionW4_0" departPos="5.10" departSpeed="0.00" departDelay="-0.43" arrival="151.00" arrivalLane="DestinationS1_1" arrivalPos="373.48" arrivalSpeed="24.84" duration="136.00" routeLength="2089.17" waitingTime="25.00" waitingCount="1" stopTime="0.00" timeLoss="54.89" rerouteNo="0" devices="tripinfo_w4-s1_0.3" vType="DEFAULT_VEHTYPE" speedFactor="0.94" vaporized=""/>
    <tripinfo id="w4-s1_0.2" depart="10.00" departLane="OrigionW4_0" departPos="5.10" departSpeed="0.00" departDelay="-0.28" arrival="161.00" arrivalLane="DestinationS1_0" arrivalPos="373.48" arrivalSpeed="19.61" duration="151.00" routeLength="2089.17" waitingTime="20.00" waitingCount="1" stopTime="0.00" timeLoss="45.33" rerouteNo="0" devices="tripinfo_w4-s1_0.2" vType="DEFAULT_VEHTYPE" speedFactor="0.72" vaporized=""/>
    <tripinfo id="e5-e1_0.1" depart="8.00" departLane="OrigionE5_0" departPos="5.10" departSpeed="0.00" departDelay="-0.57" arrival="182.00" arrivalLane="DestinationE1_0" arrivalPos="250.56" arrivalSpeed="21.24" duration="174.00" routeLength="2162.05" waitingTime="50.00" waitingCount="1" stopTime="0.00" timeLoss="65.58" rerouteNo="0" devices="tripinfo_e5-e1_0.1" vType="DEFAULT_VEHTYPE" speedFactor="1.00" vaporized=""/>
    <tripinfo id="e5-e1_0.2" depart="17.00" departLane="OrigionE5_0" departPos="5.10" departSpeed="0.00" departDelay="-0.14" arrival="193.00" arrivalLane="DestinationE1_0" arrivalPos="250.56" arrivalSpeed="18.50" duration="176.00" routeLength="2162.05" waitingTime="34.00" waitingCount="1" stopTime="0.00" timeLoss="52.11" rerouteNo="0" devices="tripinfo_e5-e1_0.2" vType="DEFAULT_VEHTYPE" speedFactor="0.87" vaporized=""/>
    <tripinfo id="e3-s5_0.0" depart="3.00" departLane="OrigionE3_0" departPos="5.10" departSpeed="0.00" departDelay="3.00" arrival="198.00" arrivalLane="DestinationS5_0" arrivalPos="746.72" arrivalSpeed="22.22" duration="195.00" routeLength="3631.94" waitingTime="19.00" waitingCount="3" stopTime="0.00" timeLoss="61.35" rerouteNo="0" devices="tripinfo_e3-s5_0.0" vType="DEFAULT_VEHTYPE" speedFactor="1.03" vaporized=""/>
    <tripinfo id="s1-w4_0.7" depart="35.00" departLane="OrigionS1_0" departPos="5.10" departSpeed="0.00" departDelay="-0.99" arrival="202.00" arrivalLane="DestinationW4_1" arrivalPos="242.47" arrivalSpeed="26.50" duration="167.00" routeLength="2089.17" waitingTime="60.00" waitingCount="2" stopTime="0.00" timeLoss="90.46" rerouteNo="0" devices="tripinfo_s1-w4_0.7" vType="DEFAULT_VEHTYPE" speedFactor="0.99" vaporized=""/>
    <tripinfo id="s1-w4_0.6" depart="30.00" departLane="OrigionS1_0" departPos="5.10" departSpeed="0.00" departDelay="-0.85" arrival="204.00" arrivalLane="DestinationW4_0" arrivalPos="242.47" arrivalSpeed="25.77" duration="174.00" routeLength="2089.17" waitingTime="64.00" waitingCount="2" stopTime="0.00" timeLoss="93.27" rerouteNo="0" devices="tripinfo_s1-w4_0.6" vType="DEFAULT_VEHTYPE" speedFactor="0.94" vaporized=""/>
    <tripinfo id="s1-w4_0.9" depart="46.00" departLane="OrigionS1_0" departPos="5.10" departSpeed="0.00" departDelay="-0.28" arrival="204.00" arrivalLane="DestinationW4_1" arrivalPos="242.47" arrivalSpeed="27.92" duration="158.00" routeLength="2089.17" waitingTime="50.00" waitingCount="2" stopTime="0.00" timeLoss="85.56" rerouteNo="0" devices="tripinfo_s1-w4_0.9" vType="DEFAULT_VEHTYPE" speedFactor="1.05" vaporized=""/>
    <tripinfo id="w4-s1_0.6" depart="30.00" departLane="OrigionW4_0" departPos="5.10" departSpeed="0.00" departDelay="-0.85" arrival="205.00" arrivalLane="DestinationS1_0" arrivalPos="373.48" arrivalSpeed="28.47" duration="175.00" routeLength="2089.17" waitingTime="69.00" waitingCount="2" stopTime="0.00" timeLoss="102.74" rerouteNo="0" devices="tripinfo_w4-s1_0.6" vType="DEFAULT_VEHTYPE" speedFactor="1.04" vaporized=""/>
    <tripinfo id="s1-w4_0.11" depart="56.00" departLane="OrigionS1_0" departPos="5.10" departSpeed="0.00" departDelay="-0.56" arrival="206.00" arrivalLane="DestinationW4_1" arrivalPos="242.47" arrivalSpeed="27.00" duration="150.00" routeLength="2089.17" waitingTime="41.00" waitingCount="2" stopTime="0.00" timeLoss="72.72" rerouteNo="0" devices="tripinfo_s1-w4_0.11" vType="DEFAULT_VEHTYPE" speedFactor="0.97" vaporized=""/>
    <tripinfo id="s1-w4_0.5" depart="25.00" departLane="OrigionS1_0" departPos="5.10" departSpeed="0.00" departDelay="-0.71" arrival="208.00" arrivalLane="DestinationW4_0" arrivalPos="242.47" arrivalSpeed="21.89" duration="183.00" routeLength="2089.17" waitingTime="63.00" waitingCount="2" stopTime="0.00" timeLoss="92.51" rerouteNo="0" devices="tripinfo_s1-w4_0.5" vType="DEFAULT_VEHTYPE" speedFactor="0.83" vaporized=""/>
    <tripinfo id="s1-w4_0.12" depart="61.00" departLane="OrigionS1_0" departPos="5.10" departSpeed="0.00" departDelay="-0.70" arrival="208.00" arrivalLane="DestinationW4_1" arrivalPos="242.47" arrivalSpeed="26.36" duration="147.00" routeLength="2089.17" waitingTime="33.00" waitingCount="2" stopTime="0.00" timeLoss="70.46" rerouteNo="0" devices="tripinfo_s1-w4_0.12" vType="DEFAULT_VEHTYPE" speedFactor="0.99" vaporized=""/>
    <tripinfo id="s1-w4_0.10" depart="51.00" departLane="OrigionS1_0" departPos="5.10" departSpeed="0.00" departDelay="-0.42" arrival="209.00" arrivalLane="DestinationW4_1" arrivalPos="242.47" arrivalSpeed="29.14" duration="158.00" routeLength="2089.17" waitingTime="45.00" waitingCount="2" stopTime="0.00" timeLoss="89.05" rerouteNo="0" devices="tripinfo_s1-w4_0.10" vType="DEFAULT_VEHTYPE" speedFactor="1.09" vaporized=""/>
    <tripinfo id="w2-n6_0.1" depart="8.00" departLane="OrigionW2_0" departPos="5.10" departSpeed="0.00" departDelay="-0.57" arrival="209.00" arrivalLane="DestinationN6_0" arrivalPos="784.86" arrivalSpeed="23.13" duration="201.00" routeLength="4002.77" waitingTime="21.00" waitingCount="1" stopTime="0.00" timeLoss="52.98" rerouteNo="0" devices="tripinfo_w2-n6_0.1" vType="DEFAULT_VEHTYPE" speedFactor="1.07" vaporized=""/>
    <tripinfo id="s1-w4_0.8" depart="41.00" departLane="OrigionS1_0" departPos="5.10" departSpeed="0.00" departDelay="-0.14" arrival="210.00" arrivalLane="DestinationW4_0" arrivalPos="242.47" arrivalSpeed="27.27" duration="169.00" routeLength="2089.17" waitingTime="50.00" waitingCount="2" stopTime="0.00" timeLoss="94.79" rerouteNo="0" devices="tripinfo_s1-w4_0.8" vType="DEFAULT_VEHTYPE" speedFactor="1.02" vaporized=""/>
    <tripinfo id="w4-s1_0.7" depart="35.00" departLane="OrigionW4_0" departPos="5.10" departSpeed="0.00" departDelay="-0.99" arrival="211.00" arrivalLane="DestinationS1_1" arrivalPos="373.48" arrivalSpeed="24.87" duration="176.00" routeLength="2089.17" waitingTime="66.00" waitingCount="2" stopTime="0.00" timeLoss="92.24" rerouteNo="0" devices="tripinfo_w4-s1_0.7" vType="DEFAULT_VEHTYPE" speedFactor="0.90" vaporized=""/>
    <tripinfo id="w9-n3_0.4" depart="21.00" departLane="OrigionW9_0" departPos="5.10" departSpeed="0.00" departDelay="0.43" arrival="211.00" arrivalLane="DestinationN3_0" arrivalPos="1620.24" arrivalSpeed="33.64" duration="190.00" routeLength="4141.63" waitingTime="18.00" waitingCount="1" stopTime="0.00" timeLoss="67.89" rerouteNo="0" devices="tripinfo_w9-n3_0.4" vType="DEFAULT_VEHTYPE" speedFactor="1.22" vaporized=""/>
    <tripinfo id="w4-s1_0.9" depart="46.00" departLane="OrigionW4_0" departPos="5.10" departSpeed="0.00" departDelay="-0.28" arrival="212.00" arrivalLane="DestinationS1_1" arrivalPos="373.48" arrivalSpeed="26.09" duration="166.00" routeLength="2089.17" waitingTime="57.00" waitingCount="2" stopTime="0.00" timeLoss="96.50" rerouteNo="0" devices="tripinfo_w4-s1_0.9" vType="DEFAULT_VEHTYPE" speedFactor="1.08" vaporized=""/>
    <tripinfo id="w4-s1_0.5" depart="25.00" departLane="OrigionW4_0" departPos="5.10" departSpeed="0.00" departDelay="-0.71" arrival="212.00" arrivalLane="DestinationS1_0" arrivalPos="373.48" arrivalSpeed="22.41" duration="187.00" routeLength="2089.17" waitingTime="72.00" waitingCount="2" stopTime="0.00" timeLoss="94.85" rerouteNo="0" devices="tripinfo_w4-s1_0.5" vType="DEFAULT_VEHTYPE" speedFactor="0.82" vaporized=""/>
    <tripinfo id="w9-n3_0.0" depart="0.00" departLane="OrigionW9_0" departPos="5.10" departSpeed="0.00" departDelay="0.00" arrival="213.00" arrivalLane="DestinationN3_0" arrivalPos="1620.24" arrivalSpeed="32.69" duration="213.00" routeLength="4141.63" waitingTime="44.00" waitingCount="2" stopTime="0.00" timeLoss="88.44" rerouteNo="0" devices="tripinfo_w9-n3_0.0" vType="DEFAULT_VEHTYPE" speedFactor="1.20" vaporized=""/>
    <tripinfo id="s6-w5_0.0" depart="0.00" departLane="OrigionS6_0" departPos="5.10" departSpeed="0.00" departDelay="0.00" arrival="213.00" arrivalLane="DestinationW5_0" arrivalPos="259.12" arrivalSpeed="12.79" duration="213.00" routeLength="3323.55" waitingTime="47.00" waitingCount="2" stopTime="0.00" timeLoss="76.65" rerouteNo="0" devices="tripinfo_s6-w5_0.0" vType="DEFAULT_VEHTYPE" speedFactor="0.96" vaporized=""/>
    <tripinfo id="w4-s1_0.11" depart="56.00" departLane="OrigionW4_0" departPos="5.10" departSpeed="0.00" departDelay="-0.56" arrival="214.00" arrivalLane="DestinationS1_1" arrivalPos="373.48" arrivalSpeed="28.22" duration="158.00" routeLength="2089.17" waitingTime="48.00" waitingCount="2" stopTime="0.00" timeLoss="89.64" rerouteNo="0" devices="tripinfo_w4-s1_0.11" vType="DEFAULT_VEHTYPE" speedFactor="1.11" vaporized=""/>
    <tripinfo id="w4-s1_0.8" depart="41.00" departLane="OrigionW4_0" departPos="5.10" departSpeed="0.00" departDelay="-0.14" arrival="214.00" arrivalLane="DestinationS1_0" arrivalPos="373.48" arrivalSpeed="25.06" duration="173.00" routeLength="2089.17" waitingTime="50.00" waitingCount="2" stopTime="0.00" timeLoss="99.67" rerouteNo="0" devices="tripinfo_w4-s1_0.8" vType="DEFAULT_VEHTYPE" speedFactor="1.04" vaporized=""/>
    <tripinfo id="w2-n6_0.0" depart="0.00" departLane="OrigionW2_0" departPos="5.10" departSpeed="0.00" departDelay="0.00" arrival="214.00" arrivalLane="DestinationN6_0" arrivalPos="784.86" arrivalSpeed="21.24" duration="214.00" routeLength="4002.77" waitingTime="20.00" waitingCount="1" stopTime="0.00" timeLoss="49.28" rerouteNo="0" devices="tripinfo_w2-n6_0.0" vType="DEFAULT_VEHTYPE" speedFactor="0.96" vaporized=""/>
    <tripinfo id="w4-s1_0.10" depart="51.00" departLane="OrigionW4_0" departPos="5.10" departSpeed="0.00" departDelay="-0.42" arrival="215.00" arrivalLane="DestinationS1_0" arrivalPos="373.48" arrivalSpeed="25.30" duration="164.00" routeLength="2089.17" waitingTime="43.00" waitingCount="2" stopTime="0.00" timeLoss="94.91" rerouteNo="0" devices="tripinfo_w4-s1_0.10" vType="DEFAULT_VEHTYPE" speedFactor="1.09" vaporized=""/>
    <tripinfo id="s6-w5_0.1" depart="5.00" departLane="OrigionS6_0" departPos="5.10" departSpeed="0.00" departDelay="-0.14" arrival="216.00" arrivalLane="DestinationW5_0" arrivalPos="259.12" arrivalSpeed="12.69" duration="211.00" routeLength="3323.55" waitingTime="39.00" waitingCount="2" stopTime="0.00" timeLoss="75.72" rerouteNo="0" devices="tripinfo_s6-w5_0.1" vType="DEFAULT_VEHTYPE" speedFactor="0.96" vaporized=""/>
    <tripinfo id="w4-s1_0.12" depart="61.00" departLane="OrigionW4_0" departPos="5.10" departSpeed="0.00" departDelay="-0.70" arrival="217.00" arrivalLane="DestinationS1_0" arrivalPos="373.48" arrivalSpeed="26.09" duration="156.00" routeLength="2089.17" waitingTime="32.00" waitingCount="2" stopTime="0.00" timeLoss="78.25" rerouteNo="0" devices="tripinfo_w4-s1_0.12" vType="DEFAULT_VEHTYPE" speedFactor="0.98" vaporized=""/>
    <tripinfo id="s6-w5_0.2" depart="10.00" departLane="OrigionS6_0" departPos="5.10" departSpeed="0.00" departDelay="-0.28" arrival="218.00" arrivalLane="DestinationW5_0" arrivalPos="259.12" arrivalSpeed="12.55" duration="208.00" routeLength="3323.55" waitingTime="37.00" waitingCount="2" stopTime="0.00" timeLoss="70.40" rerouteNo="0" devices="tripinfo_s6-w5_0.2" vType="DEFAULT_VEHTYPE" speedFactor="0.94" vaporized=""/>
    <tripinfo id="s6-w5_0.3" depart="15.00" departLane="OrigionS6_0" departPos="5.10" departSpeed="0.00" departDelay="-0.43" arrival="220.00" arrivalLane="DestinationW5_0" arrivalPos="259.12" arrivalSpeed="16.03" duration="205.00" routeLength="3323.55" waitingTime="35.00" waitingCount="2" stopTime="0.00" timeLoss="92.78" rerouteNo="0" devices="tripinfo_s6-w5_0.3" vType="DEFAULT_VEHTYPE" speedFactor="1.16" vaporized=""/>
    <tripinfo id="w9-n3_0.1" depart="6.00" departLane="OrigionW9_0" departPos="5.10" departSpeed="0.00" departDelay="0.86" arrival="229.00" arrivalLane="DestinationN3_0" arrivalPos="1620.24" arrivalSpeed="26.68" duration="223.00" routeLength="4141.63" waitingTime="35.00" waitingCount="1" stopTime="0.00" timeLoss="70.11" rerouteNo="0" devices="tripinfo_w9-n3_0.1" vType="DEFAULT_VEHTYPE" speedFactor="0.98" vaporized=""/>
    <tripinfo id="n4-w2_0.0" depart="0.00" departLane="OrigionN4_0" departPos="5.10" departSpeed="0.00" departDelay="0.00" arrival="235.00" arrivalLane="DestinationW2_0" arrivalPos="782.62" arrivalSpeed="22.31" duration="235.00" routeLength="3590.24" waitingTime="52.00" waitingCount="2" stopTime="0.00" timeLoss="83.51" rerouteNo="0" devices="tripinfo_n4-w2_0.0" vType="DEFAULT_VEHTYPE" speedFactor="1.02" vaporized=""/>
    <tripinfo id="e5-e1_0.3" depart="25.00" departLane="OrigionE5_0" departPos="5.10" departSpeed="0.00" departDelay="-0.71" arrival="236.00" arrivalLane="DestinationE1_0" arrivalPos="250.56" arrivalSpeed="22.79" duration="211.00" routeLength="2162.05" waitingTime="70.00" waitingCount="2" stopTime="0.00" timeLoss="109.41" rerouteNo="0" devices="tripinfo_e5-e1_0.3" vType="DEFAULT_VEHTYPE" speedFactor="1.06" vaporized=""/>
    <tripinfo id="n4-w2_0.2" depart="10.00" departLane="OrigionN4_0" departPos="5.10" departSpeed="0.00" departDelay="-0.28" arrival="238.00" arrivalLane="DestinationW2_0" arrivalPos="782.62" arrivalSpeed="21.80" duration="228.00" routeLength="3590.24" waitingTime="36.00" waitingCount="2" stopTime="0.00" timeLoss="73.19" rerouteNo="0" devices="tripinfo_n4-w2_0.2" vType="DEFAULT_VEHTYPE" speedFactor="1.00" vaporized=""/>
    <tripinfo id="n4-w2_0.3" depart="15.00" departLane="OrigionN4_0" departPos="5.10" departSpeed="0.00" departDelay="-0.43" arrival="240.00" arrivalLane="DestinationW2_0" arrivalPos="782.62" arrivalSpeed="21.79" duration="225.00" routeLength="3590.24" waitingTime="33.00" waitingCount="2" stopTime="0.00" timeLoss="73.63" rerouteNo="0" devices="tripinfo_n4-w2_0.3" vType="DEFAULT_VEHTYPE" speedFactor="1.02" vaporized=""/>
    <tripinfo id="e5-e1_0.4" depart="34.00" departLane="OrigionE5_0" departPos="5.10" departSpeed="0.00" departDelay="-0.28" arrival="240.00" arrivalLane="DestinationE1_0" arrivalPos="250.56" arrivalSpeed="23.01" duration="206.00" routeLength="2162.05" waitingTime="62.00" waitingCount="2" stopTime="0.00" timeLoss="101.30" rerouteNo="0" devices="tripinfo_e5-e1_0.4" vType="DEFAULT_VEHTYPE" speedFactor="1.04" vaporized=""/>
    <tripinfo id="n4-w2_0.1" depart="5.00" departLane="OrigionN4_0" departPos="5.10" departSpeed="0.00" departDelay="-0.14" arrival="251.00" arrivalLane="DestinationW2_0" arrivalPos="782.62" arrivalSpeed="17.93" duration="246.00" routeLength="3590.24" waitingTime="35.00" waitingCount="1" stopTime="0.00" timeLoss="62.08" rerouteNo="0" devices="tripinfo_n4-w2_0.1" vType="DEFAULT_VEHTYPE" speedFactor="0.84" vaporized=""/>
    <tripinfo id="n4-w2_0.4" depart="20.00" departLane="OrigionN4_0" departPos="5.10" departSpeed="0.00" departDelay="-0.57" arrival="252.00" arrivalLane="DestinationW2_0" arrivalPos="782.62" arrivalSpeed="18.99" duration="232.00" routeLength="3590.24" waitingTime="24.00" waitingCount="1" stopTime="0.00" timeLoss="53.30" rerouteNo="0" devices="tripinfo_n4-w2_0.4" vType="DEFAULT_VEHTYPE" speedFactor="0.86" vaporized=""/>
    <tripinfo id="n7-s3_0.4" depart="20.00" departLane="OrigionN7_0" departPos="5.10" departSpeed="0.00" departDelay="-0.57" arrival="258.00" arrivalLane="DestinationS3_1" arrivalPos="924.28" arrivalSpeed="32.24" duration="238.00" routeLength="4886.27" waitingTime="56.00" waitingCount="2" stopTime="0.00" timeLoss="90.85" rerouteNo="0" devices="tripinfo_n7-s3_0.4" vType="DEFAULT_VEHTYPE" speedFactor="1.20" vaporized=""/>
    <tripinfo id="s1-w4_0.16" depart="82.00" departLane="OrigionS1_0" departPos="5.10" departSpeed="0.00" departDelay="-0.27" arrival="259.00" arrivalLane="DestinationW4_1" arrivalPos="242.47" arrivalSpeed="32.26" duration="177.00" routeLength="2089.17" waitingTime="77.00" waitingCount="2" stopTime="0.00" timeLoss="113.43" rerouteNo="0" devices="tripinfo_s1-w4_0.16" vType="DEFAULT_VEHTYPE" speedFactor="1.19" vaporized=""/>
    <tripinfo id="s1-w4_0.13" depart="66.00" departLane="OrigionS1_0" departPos="5.10" departSpeed="0.00" departDelay="-0.85" arrival="260.00" arrivalLane="DestinationW4_0" arrivalPos="242.47" arrivalSpeed="33.50" duration="194.00" routeLength="2089.17" waitingTime="90.00" waitingCount="3" stopTime="0.00" timeLoss="133.32" rerouteNo="0" devices="tripinfo_s1-w4_0.13" vType="DEFAULT_VEHTYPE" speedFactor="1.25" vaporized=""/>
    <tripinfo id="n7-s3_0.7" depart="35.00" departLane="OrigionN7_0" departPos="5.10" departSpeed="0.00" departDelay="-0.99" arrival="260.00" arrivalLane="DestinationS3_0" arrivalPos="924.28" arrivalSpeed="28.43" duration="225.00" routeLength="4886.27" waitingTime="26.00" waitingCount="2" stopTime="0.00" timeLoss="60.49" rerouteNo="0" devices="tripinfo_n7-s3_0.7" vType="DEFAULT_VEHTYPE" speedFactor="1.07" vaporized=""/>
    <tripinfo id="e3-s5_0.1" depart="11.00" departLane="OrigionE3_0" departPos="5.10" departSpeed="0.00" departDelay="2.43" arrival="260.00" arrivalLane="DestinationS5_0" arrivalPos="746.72" arrivalSpeed="21.03" duration="249.00" routeLength="3631.94" waitingTime="59.00" waitingCount="3" stopTime="0.00" timeLoss="106.36" rerouteNo="0" devices="tripinfo_e3-s5_0.1" vType="DEFAULT_VEHTYPE" speedFactor="0.96" vaporized=""/>
    <tripinfo id="n7-s3_0.1" depart="5.00" departLane="OrigionN7_0" departPos="5.10" departSpeed="0.00" departDelay="-0.14" arrival="261.00" arrivalLane="DestinationS3_1" arrivalPos="924.28" arrivalSpeed="31.36" duration="256.00" routeLength="4886.27" waitingTime="53.00" waitingCount="2" stopTime="0.00" timeLoss="101.02" rerouteNo="0" devices="tripinfo_n7-s3_0.1" vType="DEFAULT_VEHTYPE" speedFactor="1.14" vaporized=""/>
    <tripinfo id="w9-n3_0.3" depart="15.00" departLane="OrigionW9_0" departPos="5.10" departSpeed="0.00" departDelay="-0.43" arrival="261.00" arrivalLane="DestinationN3_0" arrivalPos="1620.24" arrivalSpeed="24.99" duration="246.00" routeLength="4141.63" waitingTime="36.00" waitingCount="3" stopTime="0.00" timeLoss="85.78" rerouteNo="0" devices="tripinfo_w9-n3_0.3" vType="DEFAULT_VEHTYPE" speedFactor="0.93" vaporized=""/>
    <tripinfo id="e3-s5_0.3" depart="28.00" departLane="OrigionE3_0" departPos="5.10" departSpeed="0.00" departDelay="2.29" arrival="262.00" arrivalLane="DestinationS5_0" arrivalPos="746.72" arrivalSpeed="23.81" duration="234.00" routeLength="3631.94" waitingTime="43.00" waitingCount="4" stopTime="0.00" timeLoss="108.41" rerouteNo="0" devices="tripinfo_e3-s5_0.3" vType="DEFAULT_VEHTYPE" speedFactor="1.10" vaporized=""/>
    <tripinfo id="s1-w4_0.18" depart="92.00" departLane="OrigionS1_0" departPos="5.10" departSpeed="0.00" departDelay="-0.56" arrival="263.00" arrivalLane="DestinationW4_1" arrivalPos="242.47" arrivalSpeed="27.15" duration="171.00" routeLength="2089.17" waitingTime="67.00" waitingCount="2" stopTime="0.00" timeLoss="97.50" rerouteNo="0" devices="tripinfo_s1-w4_0.18" vType="DEFAULT_VEHTYPE" speedFactor="1.02" vaporized=""/>
    <tripinfo id="w9-n3_0.2" depart="12.00" departLane="OrigionW9_0" departPos="5.10" departSpeed="0.00" departDelay="1.72" arrival="263.00" arrivalLane="DestinationN3_0" arrivalPos="1620.24" arrivalSpeed="24.96" duration="251.00" routeLength="4141.63" waitingTime="40.00" waitingCount="3" stopTime="0.00" timeLoss="87.55" rerouteNo="0" devices="tripinfo_w9-n3_0.2" vType="DEFAULT_VEHTYPE" speedFactor="0.92" vaporized=""/>
    <tripinfo id="s1-w4_0.14" depart="71.00" departLane="OrigionS1_0" departPos="5.10" departSpeed="0.00" departDelay="-0.99" arrival="264.00" arrivalLane="DestinationW4_0" arrivalPos="242.47" arrivalSpeed="28.53" duration="193.00" routeLength="2089.17" waitingTime="77.00" waitingCount="3" stopTime="0.00" timeLoss="119.65" rerouteNo="0" devices="tripinfo_s1-w4_0.14" vType="DEFAULT_VEHTYPE" speedFactor="1.03" vaporized=""/>
    <tripinfo id="w4-s1_0.14" depart="71.00" departLane="OrigionW4_0" departPos="5.10" departSpeed="0.00" departDelay="-0.99" arrival="265.00" arrivalLane="DestinationS1_0" arrivalPos="373.48" arrivalSpeed="29.92" duration="194.00" routeLength="2089.17" waitingTime="84.00" waitingCount="3" stopTime="0.00" timeLoss="124.88" rerouteNo="0" devices="tripinfo_w4-s1_0.14" vType="DEFAULT_VEHTYPE" speedFactor="1.09" vaporized=""/>
    <tripinfo id="n7-s3_0.3" depart="15.00" departLane="OrigionN7_0" departPos="5.10" departSpeed="0.00" departDelay="-0.43" arrival="265.00" arrivalLane="DestinationS3_0" arrivalPos="924.28" arrivalSpeed="27.34" duration="250.00" routeLength="4886.27" waitingTime="39.00" waitingCount="2" stopTime="0.00" timeLoss="74.72" rerouteNo="0" devices="tripinfo_n7-s3_0.3" vType="DEFAULT_VEHTYPE" speedFactor="1.01" vaporized=""/>
    <tripinfo id="e3-s5_0.2" depart="20.00" departLane="OrigionE3_0" departPos="5.10" departSpeed="0.00" departDelay="2.86" arrival="265.00" arrivalLane="DestinationS5_0" arrivalPos="746.72" arrivalSpeed="19.70" duration="245.00" routeLength="3631.94" waitingTime="46.00" waitingCount="3" stopTime="0.00" timeLoss="98.70" rerouteNo="0" devices="tripinfo_e3-s5_0.2" vType="DEFAULT_VEHTYPE" speedFactor="0.94" vaporized=""/>
    <tripinfo id="s4-n5_0.0" depart="0.00" departLane="OrigionS4_0" departPos="5.10" departSpeed="0.00" departDelay="0.00" arrival="265.00" arrivalLane="DestinationN5_0" arrivalPos="178.17" arrivalSpeed="12.55" duration="265.00" routeLength="3209.41" waitingTime="78.00" waitingCount="3" stopTime="0.00" timeLoss="120.72" rerouteNo="0" devices="tripinfo_s4-n5_0.0" vType="DEFAULT_VEHTYPE" speedFactor="0.99" vaporized=""/>
    <tripinfo id="w4-s1_0.13" depart="66.00" departLane="OrigionW4_0" departPos="5.10" departSpeed="0.00" departDelay="-0.85" arrival="266.00" arrivalLane="DestinationS1_0" arrivalPos="373.48" arrivalSpeed="31.55" duration="200.00" routeLength="2089.17" waitingTime="91.00" waitingCount="3" stopTime="0.00" timeLoss="135.22" rerouteNo="0" devices="tripinfo_w4-s1_0.13" vType="DEFAULT_VEHTYPE" speedFactor="1.16" vaporized=""/>
    <tripinfo id="e3-s5_0.5" depart="45.00" departLane="OrigionE3_0" departPos="5.10" departSpeed="0.00" departDelay="2.15" arrival="266.00" arrivalLane="DestinationS5_0" arrivalPos="746.72" arrivalSpeed="21.06" duration="221.00" routeLength="3631.94" waitingTime="26.00" waitingCount="3" stopTime="0.00" timeLoss="81.79" rerouteNo="0" devices="tripinfo_e3-s5_0.5" vType="DEFAULT_VEHTYPE" speedFactor="0.99" vaporized=""/>
    <tripinfo id="w4-s1_0.15" depart="77.00" departLane="OrigionW4_0" departPos="5.10" departSpeed="0.00" departDelay="-0.13" arrival="267.00" arrivalLane="DestinationS1_1" arrivalPos="373.48" arrivalSpeed="28.66" duration="190.00" routeLength="2089.17" waitingTime="77.00" waitingCount="3" stopTime="0.00" timeLoss="118.98" rerouteNo="0" devices="tripinfo_w4-s1_0.15" vType="DEFAULT_VEHTYPE" speedFactor="1.07" vaporized=""/>
    <tripinfo id="s1-w4_0.19" depart="97.00" departLane="OrigionS1_0" departPos="5.10" departSpeed="0.00" departDelay="-0.70" arrival="267.00" arrivalLane="DestinationW4_1" arrivalPos="242.47" arrivalSpeed="25.23" duration="170.00" routeLength="2089.17" waitingTime="59.00" waitingCount="2" stopTime="0.00" timeLoss="88.27" rerouteNo="0" devices="tripinfo_s1-w4_0.19" vType="DEFAULT_VEHTYPE" speedFactor="0.92" vaporized=""/>
    <tripinfo id="w4-s1_0.17" depart="87.00" departLane="OrigionW4_0" departPos="5.10" departSpeed="0.00" departDelay="-0.41" arrival="268.00" arrivalLane="DestinationS1_1" arrivalPos="373.48" arrivalSpeed="30.32" duration="181.00" routeLength="2089.17" waitingTime="70.00" waitingCount="2" stopTime="0.00" timeLoss="114.70" rerouteNo="0" devices="tripinfo_w4-s1_0.17" vType="DEFAULT_VEHTYPE" speedFactor="1.14" vaporized=""/>
    <tripinfo id="s1-w4_0.15" depart="77.00" departLane="OrigionS1_0" departPos="5.10" departSpeed="0.00" departDelay="-0.13" arrival="268.00" arrivalLane="DestinationW4_0" arrivalPos="242.47" arrivalSpeed="25.02" duration="191.00" routeLength="2089.17" waitingTime="71.00" waitingCount="2" stopTime="0.00" timeLoss="107.06" rerouteNo="0" devices="tripinfo_s1-w4_0.15" vType="DEFAULT_VEHTYPE" speedFactor="0.90" vaporized=""/>