<?xml version="1.0" encoding="UTF-8"?>

<!-- generated on Wed Jan  9 21:47:26 2019 by Eclipse SUMO Version v1_0_1+0999-ba34606b5d
<configuration xmlns:xsi="http://www.w3.org/2001/XMLSchema-instance" xsi:noNamespaceSchemaLocation="http://sumo.dlr.de/xsd/sumoConfiguration.xsd">

    <input>
        <net-file value="Chj_final.net.xml"/>
        <route-files value="Chj_Demand6.rou.xml"/>
        <additional-files value="loops.xml"/>
    </input>

    <output>
        <queue-output value="FTCqueue6.xml"/>
        <summary-output value="FTCsummary6.xml"/>
        <tripinfo-output value="FTCtripinfo6.xml"/>
    </output>

    <time>
        <begin value="0"/>
        <end value="3600"/>
    </time>

    <report>
        <xml-validation value="never"/>
        <duration-log.disable value="true"/>
        <no-step-log value="true"/>
    </report>

    <traci_server>
        <remote-port value="40809"/>
    </traci_server>

    <random_number>
        <seed value="57"/>
    </random_number>

</configuration>
-->

<tripinfos xmlns:xsi="http://www.w3.org/2001/XMLSchema-instance" xsi:noNamespaceSchemaLocation="http://sumo.dlr.de/xsd/tripinfo_file.xsd">
    <tripinfo id="w4-s1_0.1" depart="6.00" departLane="OrigionW4_0" departPos="5.10" departSpeed="0.00" departDelay="0.00" arrival="78.00" arrivalLane="DestinationS1_1" arrivalPos="373.48" arrivalSpeed="32.32" duration="72.00" routeLength="2089.17" waitingTime="0.00" waitingCount="0" stopTime="0.00" timeLoss="9.17" rerouteNo="0" devices="tripinfo_w4-s1_0.1" vType="DEFAULT_VEHTYPE" speedFactor="1.21" vaporized=""/>
    <tripinfo id="w4-s1_0.0" depart="0.00" departLane="OrigionW4_0" departPos="5.10" departSpeed="0.00" departDelay="0.00" arrival="94.00" arrivalLane="DestinationS1_0" arrivalPos="373.48" arrivalSpeed="23.77" duration="94.00" routeLength="2089.17" waitingTime="0.00" waitingCount="0" stopTime="0.00" timeLoss="8.25" rerouteNo="0" devices="tripinfo_w4-s1_0.0" vType="DEFAULT_VEHTYPE" speedFactor="0.88" vaporized=""/>
    <tripinfo id="s1-w4_0.1" depart="6.00" departLane="OrigionS1_0" departPos="5.10" departSpeed="0.00" departDelay="0.00" arrival="113.00" arrivalLane="DestinationW4_1" arrivalPos="242.47" arrivalSpeed="25.14" duration="107.00" routeLength="2089.17" waitingTime="9.00" waitingCount="1" stopTime="0.00" timeLoss="26.87" rerouteNo="0" devices="tripinfo_s1-w4_0.1" vType="DEFAULT_VEHTYPE" speedFactor="0.94" vaporized=""/>
    <tripinfo id="s1-w4_0.0" depart="0.00" departLane="OrigionS1_0" departPos="5.10" departSpeed="0.00" departDelay="0.00" arrival="114.00" arrivalLane="DestinationW4_0" arrivalPos="242.47" arrivalSpeed="25.00" duration="114.00" routeLength="2089.17" waitingTime="9.00" waitingCount="1" stopTime="0.00" timeLoss="32.68" rerouteNo="0" devices="tripinfo_s1-w4_0.0" vType="DEFAULT_VEHTYPE" speedFactor="0.93" vaporized=""/>
    <tripinfo id="s1-w4_0.2" depart="12.00" departLane="OrigionS1_0" departPos="5.10" departSpeed="0.00" departDelay="0.00" arrival="115.00" arrivalLane="DestinationW4_1" arrivalPos="242.47" arrivalSpeed="27.80" duration="103.00" routeLength="2089.17" waitingTime="8.00" waitingCount="1" stopTime="0.00" timeLoss="28.15" rerouteNo="0" devices="tripinfo_s1-w4_0.2" vType="DEFAULT_VEHTYPE" speedFactor="1.02" vaporized=""/>
    <tripinfo id="s1-w4_0.3" depart="18.00" departLane="OrigionS1_0" departPos="5.10" departSpeed="0.00" departDelay="0.00" arrival="116.00" arrivalLane="DestinationW4_1" arrivalPos="242.47" arrivalSpeed="29.49" duration="98.00" routeLength="2089.17" waitingTime="1.00" waitingCount="1" stopTime="0.00" timeLoss="31.02" rerouteNo="0" devices="tripinfo_s1-w4_0.3" vType="DEFAULT_VEHTYPE" speedFactor="1.13" vaporized=""/>
    <tripinfo id="e5-e1_0.0" depart="0.00" departLane="OrigionE5_0" departPos="5.10" departSpeed="0.00" departDelay="0.00" arrival="131.00" arrivalLane="DestinationE1_0" arrivalPos="250.56" arrivalSpeed="22.34" duration="131.00" routeLength="2162.05" waitingTime="4.00" waitingCount="1" stopTime="0.00" timeLoss="23.90" rerouteNo="0" devices="tripinfo_e5-e1_0.0" vType="DEFAULT_VEHTYPE" speedFactor="1.01" vaporized=""/>
    <tripinfo id="w4-s1_0.3" depart="18.00" departLane="OrigionW4_0" departPos="5.10" departSpeed="0.00" departDelay="0.00" arrival="134.00" arrivalLane="DestinationS1_0" arrivalPos="373.48" arrivalSpeed="29.29" duration="116.00" routeLength="2089.17" waitingTime="25.00" waitingCount="1" stopTime="0.00" timeLoss="46.01" rerouteNo="0" devices="tripinfo_w4-s1_0.3" vType="DEFAULT_VEHTYPE" speedFactor="1.08" vaporized=""/>
    <tripinfo id="w4-s1_0.2" depart="12.00" departLane="OrigionW4_0" departPos="5.10" departSpeed="0.00" departDelay="0.00" arrival="136.00" arrivalLane="DestinationS1_0" arrivalPos="373.48" arrivalSpeed="26.86" duration="124.00" routeLength="2089.17" waitingTime="30.00" waitingCount="1" stopTime="0.00" timeLoss="48.81" rerouteNo="0" devices="tripinfo_w4-s1_0.2" vType="DEFAULT_VEHTYPE" speedFactor="1.01" vaporized=""/>
    <tripinfo id="w4-s1_0.4" depart="24.00" departLane="OrigionW4_0" departPos="5.10" departSpeed="0.00" departDelay="0.00" arrival="138.00" arrivalLane="DestinationS1_1" arrivalPos="373.48" arrivalSpeed="26.77" duration="114.00" routeLength="2089.17" waitingTime="16.00" waitingCount="1" stopTime="0.00" timeLoss="36.72" rerouteNo="0" devices="tripinfo_w4-s1_0.4" vType="DEFAULT_VEHTYPE" speedFactor="0.98" vaporized=""/>
    <tripinfo id="w4-s1_0.5" depart="30.00" departLane="OrigionW4_0" departPos="5.10" departSpeed="0.00" departDelay="0.00" arrival="139.00" arrivalLane="DestinationS1_0" arrivalPos="373.48" arrivalSpeed="28.40" duration="109.00" routeLength="2089.17" waitingTime="11.00" waitingCount="1" stopTime="0.00" timeLoss="40.96" rerouteNo="0" devices="tripinfo_w4-s1_0.5" vType="DEFAULT_VEHTYPE" speedFactor="1.12" vaporized=""/>
    <tripinfo id="w4-s1_0.7" depart="42.00" departLane="OrigionW4_0" departPos="5.10" departSpeed="0.00" departDelay="0.00" arrival="141.00" arrivalLane="DestinationS1_1" arrivalPos="373.48" arrivalSpeed="25.56" duration="99.00" routeLength="2089.17" waitingTime="1.00" waitingCount="1" stopTime="0.00" timeLoss="20.51" rerouteNo="0" devices="tripinfo_w4-s1_0.7" vType="DEFAULT_VEHTYPE" speedFactor="0.96" vaporized=""/>
    <tripinfo id="w4-s1_0.8" depart="48.00" departLane="OrigionW4_0" departPos="5.10" departSpeed="0.00" departDelay="0.00" arrival="143.00" arrivalLane="DestinationS1_1" arrivalPos="373.48" arrivalSpeed="26.29" duration="95.00" routeLength="2089.17" waitingTime="0.00" waitingCount="0" stopTime="0.00" timeLoss="16.91" rerouteNo="0" devices="tripinfo_w4-s1_0.8" vType="DEFAULT_VEHTYPE" speedFactor="0.97" vaporized=""/>
    <tripinfo id="w4-s1_0.9" depart="54.00" departLane="OrigionW4_0" departPos="5.10" departSpeed="0.00" departDelay="0.00" arrival="147.00" arrivalLane="DestinationS1_1" arrivalPos="373.48" arrivalSpeed="25.24" duration="93.00" routeLength="2089.17" waitingTime="0.00" waitingCount="0" stopTime="0.00" timeLoss="10.77" rerouteNo="0" devices="tripinfo_w4-s1_0.9" vType="DEFAULT_VEHTYPE" speedFactor="0.92" vaporized=""/>
    <tripinfo id="w4-s1_0.6" depart="36.00" departLane="OrigionW4_0" departPos="5.10" departSpeed="0.00" departDelay="0.00" arrival="148.00" arrivalLane="DestinationS1_0" arrivalPos="373.48" arrivalSpeed="22.62" duration="112.00" routeLength="2089.17" waitingTime="7.00" waitingCount="1" stopTime="0.00" timeLoss="22.22" rerouteNo="0" devices="tripinfo_w4-s1_0.6" vType="DEFAULT_VEHTYPE" speedFactor="0.84" vaporized=""/>
    <tripinfo id="w4-s1_0.11" depart="66.00" departLane="OrigionW4_0" departPos="5.10" departSpeed="0.00" departDelay="0.00" arrival="149.00" arrivalLane="DestinationS1_1" arrivalPos="373.48" arrivalSpeed="27.47" duration="83.00" routeLength="2089.17" waitingTime="0.00" waitingCount="0" stopTime="0.00" timeLoss="28.46" rerouteNo="0" devices="tripinfo_w4-s1_0.11" vType="DEFAULT_VEHTYPE" speedFactor="1.40" vaporized=""/>
    <tripinfo id="w4-s1_0.10" depart="60.00" departLane="OrigionW4_0" departPos="5.10" departSpeed="0.00" departDelay="0.00" arrival="149.00" arrivalLane="DestinationS1_0" arrivalPos="373.48" arrivalSpeed="24.77" duration="89.00" routeLength="2089.17" waitingTime="0.00" waitingCount="0" stopTime="0.00" timeLoss="11.44" rerouteNo="0" devices="tripinfo_w4-s1_0.10" vType="DEFAULT_VEHTYPE" speedFactor="0.97" vaporized=""/>
    <tripinfo id="w4-s1_0.12" depart="72.00" departLane="OrigionW4_0" departPos="5.10" departSpeed="0.00" departDelay="0.00" arrival="150.00" arrivalLane="DestinationS1_1" arrivalPos="373.48" arrivalSpeed="27.12" duration="78.00" routeLength="2089.17" waitingTime="0.00" waitingCount="0" stopTime="0.00" timeLoss="16.10" rerouteNo="0" devices="tripinfo_w4-s1_0.12" vType="DEFAULT_VEHTYPE" speedFactor="1.22" vaporized=""/>
    <tripinfo id="s1-w4_0.4" depart="24.00" departLane="OrigionS1_0" departPos="5.10" departSpeed="0.00" departDelay="0.00" arrival="173.00" arrivalLane="DestinationW4_0" arrivalPos="242.47" arrivalSpeed="26.45" duration="149.00" routeLength="2089.17" waitingTime="48.00" waitingCount="2" stopTime="0.00" timeLoss="71.69" rerouteNo="0" devices="tripinfo_s1-w4_0.4" vType="DEFAULT_VEHTYPE" speedFactor="0.99" vaporized=""/>
    <tripinfo id="s1-w4_0.7" depart="42.00" departLane="OrigionS1_0" departPos="5.10" departSpeed="0.00" departDelay="0.00" arrival="174.00" arrivalLane="DestinationW4_1" arrivalPos="242.47" arrivalSpeed="28.13" duration="132.00" routeLength="2089.17" waitingTime="26.00" waitingCount="2" stopTime="0.00" timeLoss="59.48" rerouteNo="0" devices="tripinfo_s1-w4_0.7" vType="DEFAULT_VEHTYPE" speedFactor="1.04" vaporized=""/>
    <tripinfo id="s1-w4_0.5" depart="30.00" departLane="OrigionS1_0" departPos="5.10" departSpeed="0.00" departDelay="0.00" arrival="174.00" arrivalLane="DestinationW4_0" arrivalPos="242.47" arrivalSpeed="25.28" duration="144.00" routeLength="2089.17" waitingTime="34.00" waitingCount="2" stopTime="0.00" timeLoss="61.28" rerouteNo="0" devices="tripinfo_s1-w4_0.5" vType="DEFAULT_VEHTYPE" speedFactor="0.91" vaporized=""/>
    <tripinfo id="s1-w4_0.8" depart="48.00" departLane="OrigionS1_0" departPos="5.10" departSpeed="0.00" departDelay="0.00" arrival="176.00" arrivalLane="DestinationW4_1" arrivalPos="242.47" arrivalSpeed="27.59" duration="128.00" routeLength="2089.17" waitingTime="20.00" waitingCount="2" stopTime="0.00" timeLoss="53.37" rerouteNo="0" devices="tripinfo_s1-w4_0.8" vType="DEFAULT_VEHTYPE" speedFactor="1.02" vaporized=""/>
    <tripinfo id="s1-w4_0.9" depart="54.00" departLane="OrigionS1_0" departPos="5.10" departSpeed="0.00" departDelay="0.00" arrival="177.00" arrivalLane="DestinationW4_1" arrivalPos="242.47" arrivalSpeed="27.22" duration="123.00" routeLength="2089.17" waitingTime="9.00" waitingCount="2" stopTime="0.00" timeLoss="47.69" rerouteNo="0" devices="tripinfo_s1-w4_0.9" vType="DEFAULT_VEHTYPE" speedFactor="1.00" vaporized=""/>
    <tripinfo id="s1-w4_0.6" depart="36.00" departLane="OrigionS1_0" departPos="5.10" departSpeed="0.00" departDelay="0.00" arrival="178.00" arrivalLane="DestinationW4_0" arrivalPos="242.47" arrivalSpeed="22.15" duration="142.00" routeLength="2089.17" waitingTime="24.00" waitingCount="2" stopTime="0.00" timeLoss="50.69" rerouteNo="0" devices="tripinfo_s1-w4_0.6" vType="DEFAULT_VEHTYPE" speedFactor="0.83" vaporized=""/>
    <tripinfo id="s1-w4_0.11" depart="66.00" departLane="OrigionS1_0" departPos="5.10" departSpeed="0.00" departDelay="0.00" arrival="180.00" arrivalLane="DestinationW4_1" arrivalPos="242.47" arrivalSpeed="25.02" duration="114.00" routeLength="2089.17" waitingTime="4.00" waitingCount="1" stopTime="0.00" timeLoss="33.32" rerouteNo="0" devices="tripinfo_s1-w4_0.11" vType="DEFAULT_VEHTYPE" speedFactor="0.94" vaporized=""/>
    <tripinfo id="s1-w4_0.10" depart="60.00" departLane="OrigionS1_0" departPos="5.10" departSpeed="0.00" departDelay="0.00" arrival="180.00" arrivalLane="DestinationW4_0" arrivalPos="242.47" arrivalSpeed="21.41" duration="120.00" routeLength="2089.17" waitingTime="2.00" waitingCount="1" stopTime="0.00" timeLoss="26.60" rerouteNo="0" devices="tripinfo_s1-w4_0.10" vType="DEFAULT_VEHTYPE" speedFactor="0.81" vaporized=""/>
    <tripinfo id="s1-w4_0.12" depart="72.00" departLane="OrigionS1_0" departPos="5.10" departSpeed="0.00" departDelay="0.00" arrival="181.00" arrivalLane="DestinationW4_1" arrivalPos="242.47" arrivalSpeed="26.30" duration="109.00" routeLength="2089.17" waitingTime="0.00" waitingCount="0" stopTime="0.00" timeLoss="32.70" rerouteNo="0" devices="tripinfo_s1-w4_0.12" vType="DEFAULT_VEHTYPE" speedFactor="0.99" vaporized=""/>
    <tripinfo id="s1-w4_0.13" depart="78.00" departLane="OrigionS1_0" departPos="5.10" departSpeed="0.00" departDelay="0.00" arrival="182.00" arrivalLane="DestinationW4_0" arrivalPos="242.47" arrivalSpeed="23.44" duration="104.00" routeLength="2089.17" waitingTime="0.00" waitingCount="0" stopTime="0.00" timeLoss="32.87" rerouteNo="0" devices="tripinfo_s1-w4_0.13" vType="DEFAULT_VEHTYPE" speedFactor="1.06" vaporized=""/>
    <tripinfo id="w8-e4_0.0" depart="0.00" departLane="OrigionW8_0" departPos="5.10" departSpeed="0.00" departDelay="0.00" arrival="185.00" arrivalLane="DestinationE4_0" arrivalPos="384.36" arrivalSpeed="20.32" duration="185.00" routeLength="3459.08" waitingTime="0.00" waitingCount="0" stopTime="0.00" timeLoss="14.57" rerouteNo="0" devices="tripinfo_w8-e4_0.0" vType="DEFAULT_VEHTYPE" speedFactor="0.92" vaporized=""/>
    <tripinfo id="w8-e4_0.1" depart="6.00" departLane="OrigionW8_0" departPos="5.10" departSpeed="0.00" departDelay="0.00" arrival="186.00" arrivalLane="DestinationE4_0" arrivalPos="384.36" arrivalSpeed="22.22" duration="180.00" routeLength="3459.08" waitingTime="0.00" waitingCount="0" stopTime="0.00" timeLoss="41.27" rerouteNo="0" devices="tripinfo_w8-e4_0.1" vType="DEFAULT_VEHTYPE" speedFactor="1.13" vaporized=""/>
    <tripinfo id="e5-e1_0.1" depart="10.00" departLane="OrigionE5_0" departPos="5.10" departSpeed="0.00" departDelay="0.00" arrival="186.00" arrivalLane="DestinationE1_0" arrivalPos="250.56" arrivalSpeed="23.05" duration="176.00" routeLength="2162.05" waitingTime="50.00" waitingCount="1" stopTime="0.00" timeLoss="75.40" rerouteNo="0" devices="tripinfo_e5-e1_0.1" vType="DEFAULT_VEHTYPE" speedFactor="1.07" vaporized=""/>
    <tripinfo id="e5-e1_0.2" depart="20.00" departLane="OrigionE5_0" departPos="5.10" departSpeed="0.00" departDelay="0.00" arrival="188.00" arrivalLane="DestinationE1_0" arrivalPos="250.56" arrivalSpeed="25.45" duration="168.00" routeLength="2162.05" waitingTime="45.00" waitingCount="2" stopTime="0.00" timeLoss="75.85" rerouteNo="0" devices="tripinfo_e5-e1_0.2" vType="DEFAULT_VEHTYPE" speedFactor="1.18" vaporized=""/>
    <tripinfo id="e4-w8_0.0" depart="0.00" departLane="OrigionE4_0" departPos="5.10" departSpeed="0.00" departDelay="0.00" arrival="191.00" arrivalLane="DestinationW8_0" arrivalPos="167.98" arrivalSpeed="21.78" duration="191.00" routeLength="3459.08" waitingTime="6.00" waitingCount="1" stopTime="0.00" timeLoss="33.21" rerouteNo="0" devices="tripinfo_e4-w8_0.0" vType="DEFAULT_VEHTYPE" speedFactor="0.99" vaporized=""/>
    <tripinfo id="e4-w8_0.1" depart="6.00" departLane="OrigionE4_0" departPos="5.10" departSpeed="0.00" departDelay="0.00" arrival="193.00" arrivalLane="DestinationW8_0" arrivalPos="167.98" arrivalSpeed="22.34" duration="187.00" routeLength="3459.08" waitingTime="4.00" waitingCount="1" stopTime="0.00" timeLoss="34.42" rerouteNo="0" devices="tripinfo_e4-w8_0.1" vType="DEFAULT_VEHTYPE" speedFactor="1.03" vaporized=""/>
    <tripinfo id="w4-s1_0.13" depart="78.00" departLane="OrigionW4_0" departPos="5.10" departSpeed="0.00" departDelay="0.00" arrival="194.00" arrivalLane="DestinationS1_0" arrivalPos="373.48" arrivalSpeed="28.22" duration="116.00" routeLength="2089.17" waitingTime="25.00" waitingCount="1" stopTime="0.00" timeLoss="43.97" rerouteNo="0" devices="tripinfo_w4-s1_0.13" vType="DEFAULT_VEHTYPE" speedFactor="1.05" vaporized=""/>
    <tripinfo id="e4-w8_0.2" depart="12.00" departLane="OrigionE4_0" departPos="5.10" departSpeed="0.00" departDelay="0.00" arrival="197.00" arrivalLane="DestinationW8_0" arrivalPos="167.98" arrivalSpeed="21.11" duration="185.00" routeLength="3459.08" waitingTime="1.00" waitingCount="1" stopTime="0.00" timeLoss="26.17" rerouteNo="0" devices="tripinfo_e4-w8_0.2" vType="DEFAULT_VEHTYPE" speedFactor="0.98" vaporized=""/>
    <tripinfo id="s4-n5_0.0" depart="0.00" departLane="OrigionS4_0" departPos="5.10" departSpeed="0.00" departDelay="0.00" arrival="199.00" arrivalLane="DestinationN5_0" arrivalPos="178.17" arrivalSpeed="13.36" duration="199.00" routeLength="3209.41" waitingTime="10.00" waitingCount="3" stopTime="0.00" timeLoss="57.03" rerouteNo="0" devices="tripinfo_s4-n5_0.0" vType="DEFAULT_VEHTYPE" speedFactor="1.01" vaporized=""/>
    <tripinfo id="w4-s1_0.14" depart="84.00" departLane="OrigionW4_0" departPos="5.10" departSpeed="0.00" departDelay="0.00" arrival="200.00" arrivalLane="DestinationS1_1" arrivalPos="373.48" arrivalSpeed="23.81" duration="116.00" routeLength="2089.17" waitingTime="11.00" waitingCount="1" stopTime="0.00" timeLoss="28.66" rerouteNo="0" devices="tripinfo_w4-s1_0.14" vType="DEFAULT_VEHTYPE" speedFactor="0.87" vaporized=""/>
    <tripinfo id="w4-s1_0.15" depart="90.00" departLane="OrigionW4_0" departPos="5.10" departSpeed="0.00" departDelay="0.00" arrival="201.00" arrivalLane="DestinationS1_1" arrivalPos="373.48" arrivalSpeed="25.98" duration="111.00" routeLength="2089.17" waitingTime="19.00" waitingCount="1" stopTime="0.00" timeLoss="40.86" rerouteNo="0" devices="tripinfo_w4-s1_0.15" vType="DEFAULT_VEHTYPE" speedFactor="1.08" vaporized=""/>
    <tripinfo id="e3-s5_0.0" depart="3.00" departLane="OrigionE3_0" departPos="5.10" departSpeed="0.00" departDelay="3.00" arrival="201.00" arrivalLane="DestinationS5_0" arrivalPos="746.72" arrivalSpeed="21.34" duration="198.00" routeLength="3631.94" waitingTime="18.00" waitingCount="3" stopTime="0.00" timeLoss="56.81" rerouteNo="0" devices="tripinfo_e3-s5_0.0" vType="DEFAULT_VEHTYPE" speedFactor="0.98" vaporized=""/>
    <tripinfo id="s4-n5_0.1" depart="6.00" departLane="OrigionS4_0" departPos="5.10" departSpeed="0.00" departDelay="0.00" arrival="201.00" arrivalLane="DestinationN5_0" arrivalPos="178.17" arrivalSpeed="15.87" duration="195.00" routeLength="3209.41" waitingTime="7.00" waitingCount="2" stopTime="0.00" timeLoss="69.84" rerouteNo="0" devices="tripinfo_s4-n5_0.1" vType="DEFAULT_VEHTYPE" speedFactor="1.15" vaporized=""/>
    <tripinfo id="w4-s1_0.18" depart="108.00" departLane="OrigionW4_0" departPos="5.10" departSpeed="0.00" departDelay="0.00" arrival="203.00" arrivalLane="DestinationS1_1" arrivalPos="373.48" arrivalSpeed="26.54" duration="95.00" routeLength="2089.17" waitingTime="0.00" waitingCount="0" stopTime="0.00" timeLoss="22.76" rerouteNo="0" devices="tripinfo_w4-s1_0.18" vType="DEFAULT_VEHTYPE" speedFactor="1.05" vaporized=""/>
    <tripinfo id="w4-s1_0.20" depart="120.00" departLane="OrigionW4_0" departPos="5.10" departSpeed="0.00" departDelay="0.00" arrival="204.00" arrivalLane="DestinationS1_1" arrivalPos="373.48" arrivalSpeed="26.68" duration="84.00" routeLength="2089.17" waitingTime="0.00" waitingCount="0" stopTime="0.00" timeLoss="17.83" rerouteNo="0" devices="tripinfo_w4-s1_0.20" vType="DEFAULT_VEHTYPE" speedFactor="1.14" vaporized=""/>
    <tripinfo id="s4-n5_0.2" depart="12.00" departLane="OrigionS4_0" departPos="5.10" departSpeed="0.00" departDelay="0.00" arrival="204.00" arrivalLane="DestinationN5_0" arrivalPos="178.17" arrivalSpeed="13.30" duration="192.00" routeLength="3209.41" waitingTime="2.00" waitingCount="1" stopTime="0.00" timeLoss="46.58" rerouteNo="0" devices="tripinfo_s4-n5_0.2" vType="DEFAULT_VEHTYPE" speedFactor="0.98" vaporized=""/>
    <tripinfo id="w4-s1_0.17" depart="102.00" departLane="OrigionW4_0" departPos="5.10" departSpeed="0.00" departDelay="0.00" arrival="205.00" arrivalLane="DestinationS1_1" arrivalPos="373.48" arrivalSpeed="26.41" duration="103.00" routeLength="2089.17" waitingTime="3.00" waitingCount="1" stopTime="0.00" timeLoss="29.66" rerouteNo="0" devices="tripinfo_w4-s1_0.17" vType="DEFAULT_VEHTYPE" speedFactor="1.03" vaporized=""/>
    <tripinfo id="s4-n5_0.3" depart="18.00" departLane="OrigionS4_0" departPos="5.10" departSpeed="0.00" departDelay="0.00" arrival="206.00" arrivalLane="DestinationN5_0" arrivalPos="178.17" arrivalSpeed="13.15" duration="188.00" routeLength="3209.41" waitingTime="1.00" waitingCount="1" stopTime="0.00" timeLoss="49.59" rerouteNo="0" devices="tripinfo_s4-n5_0.3" vType="DEFAULT_VEHTYPE" speedFactor="1.04" vaporized=""/>
    <tripinfo id="w4-s1_0.16" depart="96.00" departLane="OrigionW4_0" departPos="5.10" departSpeed="0.00" departDelay="0.00" arrival="207.00" arrivalLane="DestinationS1_0" arrivalPos="373.48" arrivalSpeed="23.14" duration="111.00" routeLength="2089.17" waitingTime="5.00" waitingCount="1" stopTime="0.00" timeLoss="23.10" rerouteNo="0" devices="tripinfo_w4-s1_0.16" vType="DEFAULT_VEHTYPE" speedFactor="0.86" vaporized=""/>
    <tripinfo id="w4-s1_0.19" depart="114.00" departLane="OrigionW4_0" departPos="5.10" departSpeed="0.00" departDelay="0.00" arrival="215.00" arrivalLane="DestinationS1_0" arrivalPos="373.48" arrivalSpeed="21.56" duration="101.00" routeLength="2089.17" waitingTime="0.00" waitingCount="0" stopTime="0.00" timeLoss="8.29" rerouteNo="0" devices="tripinfo_w4-s1_0.19" vType="DEFAULT_VEHTYPE" speedFactor="0.81" vaporized=""/>
    <tripinfo id="e1-w5_0.0" depart="0.00" departLane="OrigionE1_0" departPos="5.10" departSpeed="0.00" departDelay="0.00" arrival="229.00" arrivalLane="DestinationW5_0" arrivalPos="259.12" arrivalSpeed="12.53" duration="229.00" routeLength="3703.22" waitingTime="17.00" waitingCount="2" stopTime="0.00" timeLoss="48.81" rerouteNo="0" devices="tripinfo_e1-w5_0.0" vType="DEFAULT_VEHTYPE" speedFactor="0.96" vaporized=""/>
    <tripinfo id="w9-n3_0.0" depart="0.00" departLane="OrigionW9_0" departPos="5.10" departSpeed="0.00" departDelay="0.00" arrival="230.00" arrivalLane="DestinationN3_0" arrivalPos="1620.24" arrivalSpeed="26.64" duration="230.00" routeLength="4141.63" waitingTime="45.00" waitingCount="2" stopTime="0.00" timeLoss="77.30" rerouteNo="0" devices="tripinfo_w9-n3_0.0" vType="DEFAULT_VEHTYPE" speedFactor="0.98" vaporized=""/>
    <tripinfo id="e1-w5_0.1" depart="10.00" departLane="OrigionE1_0" departPos="5.10" departSpeed="0.00" departDelay="0.00" arrival="230.00" arrivalLane="DestinationW5_0" arrivalPos="259.12" arrivalSpeed="14.49" duration="220.00" routeLength="3703.22" waitingTime="14.00" waitingCount="1" stopTime="0.00" timeLoss="68.06" rerouteNo="0" devices="tripinfo_e1-w5_0.1" vType="DEFAULT_VEHTYPE" speedFactor="1.14" vaporized=""/>
    <tripinfo id="w7-s7_0.0" depart="3.00" departLane="OrigionW7_0" departPos="5.10" departSpeed="0.00" departDelay="3.00" arrival="231.00" arrivalLane="DestinationS7_0" arrivalPos="133.58" arrivalSpeed="32.81" duration="228.00" routeLength="4156.16" waitingTime="25.00" waitingCount="2" stopTime="0.00" timeLoss="78.02" rerouteNo="0" devices="tripinfo_w7-s7_0.0" vType="DEFAULT_VEHTYPE" speedFactor="1.19" vaporized=""/>
    <tripinfo id="s1-w4_0.15" depart="90.00" departLane="OrigionS1_0" departPos="5.10" departSpeed="0.00" departDelay="0.00" arrival="231.00" arrivalLane="DestinationW4_0" arrivalPos="242.47" arrivalSpeed="27.71" duration="141.00" routeLength="2089.17" waitingTime="37.00" waitingCount="2" stopTime="0.00" timeLoss="67.87" rerouteNo="0" devices="tripinfo_s1-w4_0.15" vType="DEFAULT_VEHTYPE" speedFactor="1.03" vaporized=""/>
    <tripinfo id="w7-s7_0.1" depart="10.00" departLane="OrigionW7_0" departPos="5.10" departSpeed="0.00" departDelay="0.00" arrival="235.00" arrivalLane="DestinationS7_0" arrivalPos="133.58" arrivalSpeed="29.82" duration="225.00" routeLength="4156.16" waitingTime="22.00" waitingCount="1" stopTime="0.00" timeLoss="61.45" rerouteNo="0" devices="tripinfo_w7-s7_0.1" vType="DEFAULT_VEHTYPE" speedFactor="1.09" vaporized=""/>
    <tripinfo id="s1-w4_0.14" depart="84.00" departLane="OrigionS1_0" departPos="5.10" departSpeed="0.00" departDelay="0.00" arrival="235.00" arrivalLane="DestinationW4_0" arrivalPos="242.47" arrivalSpeed="23.70" duration="151.00" routeLength="2089.17" waitingTime="37.00" waitingCount="2" stopTime="0.00" timeLoss="65.84" rerouteNo="0" devices="tripinfo_s1-w4_0.14" vType="DEFAULT_VEHTYPE" speedFactor="0.89" vaporized=""/>
    <tripinfo id="s1-w4_0.16" depart="96.00" departLane="OrigionS1_0" departPos="5.10" departSpeed="0.00" departDelay="0.00" arrival="236.00" arrivalLane="DestinationW4_1" arrivalPos="242.47" arrivalSpeed="24.98" duration="140.00" routeLength="2089.17" waitingTime="29.00" waitingCount="2" stopTime="0.00" timeLoss="56.34" rerouteNo="0" devices="tripinfo_s1-w4_0.16" vType="DEFAULT_VEHTYPE" speedFactor="0.91" vaporized=""/>
    <tripinfo id="s1-w4_0.18" depart="108.00" departLane="OrigionS1_0" departPos="5.10" departSpeed="0.00" departDelay="0.00" arrival="237.00" arrivalLane="DestinationW4_1" arrivalPos="242.47" arrivalSpeed="25.92" duration="129.00" routeLength="2089.17" waitingTime="21.00" waitingCount="2" stopTime="0.00" timeLoss="59.91" rerouteNo="0" devices="tripinfo_s1-w4_0.18" vType="DEFAULT_VEHTYPE" speedFactor="1.09" vaporized=""/>
    <tripinfo id="s1-w4_0.20" depart="120.00" departLane="OrigionS1_0" departPos="5.10" departSpeed="0.00" departDelay="0.00" arrival="239.00" arrivalLane="DestinationW4_1" arrivalPos="242.47" arrivalSpeed="28.29" duration="119.00" routeLength="2089.17" waitingTime="10.00" waitingCount="2" stopTime="0.00" timeLoss="53.23" rerouteNo="0" devices="tripinfo_s1-w4_0.20" vType="DEFAULT_VEHTYPE" speedFactor="1.16" vaporized=""/>
    <tripinfo id="s1-w4_0.17" depart="102.00" departLane="OrigionS1_0" departPos="5.10" departSpeed="0.00" departDelay="0.00" arrival="239.00" arrivalLane="DestinationW4_0" arrivalPos="242.47" arrivalSpeed="21.92" duration="137.00" routeLength="2089.17" waitingTime="13.00" waitingCount="2" stopTime="0.00" timeLoss="41.84" rerouteNo="0" devices="tripinfo_s1-w4_0.17" vType="DEFAULT_VEHTYPE" speedFactor="0.79" vaporized=""/>
    <tripinfo id="s1-w4_0.22" depart="132.00" departLane="OrigionS1_0" departPos="5.10" departSpeed="0.00" departDelay="0.00" arrival="240.00" arrivalLane="DestinationW4_1" arrivalPos="242.47" arrivalSpeed="28.62" duration="108.00" routeLength="2089.17" waitingTime="2.00" waitingCount="1" stopTime="0.00" timeLoss="42.57" rerouteNo="0" devices="tripinfo_s1-w4_0.22" vType="DEFAULT_VEHTYPE" speedFactor="1.16" vaporized=""/>
    <tripinfo id="n2-s8_0.0" depart="0.00" departLane="OrigionN2_0" departPos="5.10" departSpeed="0.00" departDelay="0.00" arrival="240.00" arrivalLane="DestinationS8_0" arrivalPos="419.24" arrivalSpeed="20.80" duration="240.00" routeLength="3729.72" waitingTime="41.00" waitingCount="3" stopTime="0.00" timeLoss="79.66" rerouteNo="0" devices="tripinfo_n2-s8_0.0" vType="DEFAULT_VEHTYPE" speedFactor="0.97" vaporized=""/>
    <tripinfo id="s1-w4_0.19" depart="114.00" departLane="OrigionS1_0" departPos="5.10" departSpeed="0.00" departDelay="0.00" arrival="241.00" arrivalLane="DestinationW4_0" arrivalPos="242.47" arrivalSpeed="25.78" duration="127.00" routeLength="2089.17" waitingTime="8.00" waitingCount="3" stopTime="0.00" timeLoss="53.82" rerouteNo="0" devices="tripinfo_s1-w4_0.19" vType="DEFAULT_VEHTYPE" speedFactor="1.04" vaporized=""/>
    <tripinfo id="s1-w4_0.21" depart="126.00" departLane="OrigionS1_0" departPos="5.10" departSpeed="0.00" departDelay="0.00" arrival="242.00" arrivalLane="DestinationW4_1" arrivalPos="242.47" arrivalSpeed="23.78" duration="116.00" routeLength="2089.17" waitingTime="4.00" waitingCount="1" stopTime="0.00" timeLoss="30.89" rerouteNo="0" devices="tripinfo_s1-w4_0.21" vType="DEFAULT_VEHTYPE" speedFactor="0.89" vaporized=""/>
    <tripinfo id="s1-w4_0.23" depart="138.00" departLane="OrigionS1_0" departPos="5.10" departSpeed="0.00" departDelay="0.00" arrival="243.00" arrivalLane="DestinationW4_0" arrivalPos="242.47" arrivalSpeed="22.99" duration="105.00" routeLength="2089.17" waitingTime="0.00" waitingCount="0" stopTime="0.00" timeLoss="35.16" rerouteNo="0" devices="tripinfo_s1-w4_0.23" vType="DEFAULT_VEHTYPE" speedFactor="1.08" vaporized=""/>
    <tripinfo id="e5-e1_0.3" depart="30.00" departLane="OrigionE5_0" departPos="5.10" departSpeed="0.00" departDelay="0.00" arrival="248.00" arrivalLane="DestinationE1_0" arrivalPos="250.56" arrivalSpeed="21.88" duration="218.00" routeLength="2162.05" waitingTime="77.00" waitingCount="3" stopTime="0.00" timeLoss="111.36" rerouteNo="0" devices="tripinfo_e5-e1_0.3" vType="DEFAULT_VEHTYPE" speedFactor="1.02" vaporized=""/>
    <tripinfo id="e5-e1_0.4" depart="40.00" departLane="OrigionE5_0" departPos="5.10" departSpeed="0.00" departDelay="0.00" arrival="249.00" arrivalLane="DestinationE1_0" arrivalPos="250.56" arrivalSpeed="21.79" duration="209.00" routeLength="2162.05" waitingTime="65.00" waitingCount="2" stopTime="0.00" timeLoss="104.48" rerouteNo="0" devices="tripinfo_e5-e1_0.4" vType="DEFAULT_VEHTYPE" speedFactor="1.03" vaporized=""/>
    <tripinfo id="s2-n7_0.2" depart="20.00" departLane="OrigionS2_0" departPos="5.10" departSpeed="0.00" departDelay="0.00" arrival="251.00" arrivalLane="DestinationN7_1" arrivalPos="1062.75" arrivalSpeed="32.96" duration="231.00" routeLength="4715.40" waitingTime="34.00" waitingCount="1" stopTime="0.00" timeLoss="67.71" rerouteNo="0" devices="tripinfo_s2-n7_0.2" vType="DEFAULT_VEHTYPE" speedFactor="1.22" vaporized=""/>
    <tripinfo id="e5-e1_0.5" depart="50.00" departLane="OrigionE5_0" departPos="5.10" departSpeed="0.00" departDelay="0.00" arrival="251.00" arrivalLane="DestinationE1_0" arrivalPos="250.56" arrivalSpeed="24.86" duration="201.00" routeLength="2162.05" waitingTime="60.00" waitingCount="2" stopTime="0.00" timeLoss="105.94" rerouteNo="0" devices="tripinfo_e5-e1_0.5" vType="DEFAULT_VEHTYPE" speedFactor="1.14" vaporized=""/>