<?xml version="1.0" encoding="UTF-8"?>

<!-- generated on Wed Jan  9 21:48:49 2019 by Eclipse SUMO Version v1_0_1+0999-ba34606b5d
<configuration xmlns:xsi="http://www.w3.org/2001/XMLSchema-instance" xsi:noNamespaceSchemaLocation="http://sumo.dlr.de/xsd/sumoConfiguration.xsd">

    <input>
        <net-file value="Chj_final.net.xml"/>
        <route-files value="Chj_Demand8.rou.xml"/>
        <additional-files value="loops.xml"/>
    </input>

    <output>
        <queue-output value="FTCqueue8.xml"/>
        <summary-output value="FTCsummary8.xml"/>
        <tripinfo-output value="FTCtripinfo8.xml"/>
    </output>

    <time>
        <begin value="0"/>
        <end value="3600"/>
    </time>

    <report>
        <xml-validation value="never"/>
        <duration-log.disable value="true"/>
        <no-step-log value="true"/>
    </report>

    <traci_server>
        <remote-port value="59508"/>
    </traci_server>

    <random_number>
        <seed value="10"/>
    </random_number>

</configuration>
-->

<tripinfos xmlns:xsi="http://www.w3.org/2001/XMLSchema-instance" xsi:noNamespaceSchemaLocation="http://sumo.dlr.de/xsd/tripinfo_file.xsd">
    <tripinfo id="s1-w4_0.1" depart="4.00" departLane="OrigionS1_0" departPos="5.10" departSpeed="0.00" departDelay="-0.50" arrival="80.00" arrivalLane="DestinationW4_1" arrivalPos="242.47" arrivalSpeed="30.64" duration="76.00" routeLength="2089.17" waitingTime="0.00" waitingCount="0" stopTime="0.00" timeLoss="9.41" rerouteNo="0" devices="tripinfo_s1-w4_0.1" vType="DEFAULT_VEHTYPE" speedFactor="1.15" vaporized=""/>
    <tripinfo id="s1-w4_0.0" depart="0.00" departLane="OrigionS1_0" departPos="5.10" departSpeed="0.00" departDelay="0.00" arrival="86.00" arrivalLane="DestinationW4_0" arrivalPos="242.47" arrivalSpeed="26.16" duration="86.00" routeLength="2089.17" waitingTime="0.00" waitingCount="0" stopTime="0.00" timeLoss="8.27" rerouteNo="0" devices="tripinfo_s1-w4_0.0" vType="DEFAULT_VEHTYPE" speedFactor="0.98" vaporized=""/>
    <tripinfo id="w4-s1_0.4" depart="18.00" departLane="OrigionW4_0" departPos="5.10" departSpeed="0.00" departDelay="0.00" arrival="121.00" arrivalLane="DestinationS1_1" arrivalPos="373.48" arrivalSpeed="30.11" duration="103.00" routeLength="2089.17" waitingTime="0.00" waitingCount="0" stopTime="0.00" timeLoss="34.51" rerouteNo="0" devices="tripinfo_w4-s1_0.4" vType="DEFAULT_VEHTYPE" speedFactor="1.10" vaporized=""/>
    <tripinfo id="w4-s1_0.2" depart="9.00" departLane="OrigionW4_0" departPos="5.10" departSpeed="0.00" departDelay="0.00" arrival="123.00" arrivalLane="DestinationS1_0" arrivalPos="373.48" arrivalSpeed="25.01" duration="114.00" routeLength="2089.17" waitingTime="5.00" waitingCount="1" stopTime="0.00" timeLoss="31.85" rerouteNo="0" devices="tripinfo_w4-s1_0.2" vType="DEFAULT_VEHTYPE" speedFactor="0.92" vaporized=""/>
    <tripinfo id="w4-s1_0.0" depart="0.00" departLane="OrigionW4_0" departPos="5.10" departSpeed="0.00" departDelay="0.00" arrival="124.00" arrivalLane="DestinationS1_0" arrivalPos="373.48" arrivalSpeed="26.27" duration="124.00" routeLength="2089.17" waitingTime="15.00" waitingCount="2" stopTime="0.00" timeLoss="45.27" rerouteNo="0" devices="tripinfo_w4-s1_0.0" vType="DEFAULT_VEHTYPE" speedFactor="0.96" vaporized=""/>
    <tripinfo id="w4-s1_0.5" depart="22.00" departLane="OrigionW4_0" departPos="5.10" departSpeed="0.00" departDelay="-0.50" arrival="125.00" arrivalLane="DestinationS1_1" arrivalPos="373.48" arrivalSpeed="26.74" duration="103.00" routeLength="2089.17" waitingTime="0.00" waitingCount="0" stopTime="0.00" timeLoss="27.64" rerouteNo="0" devices="tripinfo_w4-s1_0.5" vType="DEFAULT_VEHTYPE" speedFactor="1.01" vaporized=""/>
    <tripinfo id="w4-s1_0.6" depart="27.00" departLane="OrigionW4_0" departPos="5.10" departSpeed="0.00" departDelay="0.00" arrival="126.00" arrivalLane="DestinationS1_1" arrivalPos="373.48" arrivalSpeed="30.19" duration="99.00" routeLength="2089.17" waitingTime="0.00" waitingCount="0" stopTime="0.00" timeLoss="36.94" rerouteNo="0" devices="tripinfo_w4-s1_0.6" vType="DEFAULT_VEHTYPE" speedFactor="1.22" vaporized=""/>
    <tripinfo id="w4-s1_0.3" depart="13.00" departLane="OrigionW4_0" departPos="5.10" departSpeed="0.00" departDelay="-0.50" arrival="129.00" arrivalLane="DestinationS1_1" arrivalPos="373.48" arrivalSpeed="23.45" duration="116.00" routeLength="2089.17" waitingTime="0.00" waitingCount="0" stopTime="0.00" timeLoss="30.08" rerouteNo="0" devices="tripinfo_w4-s1_0.3" vType="DEFAULT_VEHTYPE" speedFactor="0.88" vaporized=""/>
    <tripinfo id="w4-s1_0.1" depart="4.00" departLane="OrigionW4_0" departPos="5.10" departSpeed="0.00" departDelay="-0.50" arrival="130.00" arrivalLane="DestinationS1_0" arrivalPos="373.48" arrivalSpeed="21.78" duration="126.00" routeLength="2089.17" waitingTime="7.00" waitingCount="1" stopTime="0.00" timeLoss="32.60" rerouteNo="0" devices="tripinfo_w4-s1_0.1" vType="DEFAULT_VEHTYPE" speedFactor="0.81" vaporized=""/>
    <tripinfo id="s1-w4_0.3" depart="13.00" departLane="OrigionS1_0" departPos="5.10" departSpeed="0.00" departDelay="-0.50" arrival="142.00" arrivalLane="DestinationW4_1" arrivalPos="242.47" arrivalSpeed="27.50" duration="129.00" routeLength="2089.17" waitingTime="34.00" waitingCount="1" stopTime="0.00" timeLoss="54.92" rerouteNo="0" devices="tripinfo_s1-w4_0.3" vType="DEFAULT_VEHTYPE" speedFactor="1.02" vaporized=""/>
    <tripinfo id="s1-w4_0.2" depart="9.00" departLane="OrigionS1_0" departPos="5.10" departSpeed="0.00" departDelay="0.00" arrival="143.00" arrivalLane="DestinationW4_0" arrivalPos="242.47" arrivalSpeed="28.29" duration="134.00" routeLength="2089.17" waitingTime="40.00" waitingCount="1" stopTime="0.00" timeLoss="61.11" rerouteNo="0" devices="tripinfo_s1-w4_0.2" vType="DEFAULT_VEHTYPE" speedFactor="1.04" vaporized=""/>
    <tripinfo id="s1-w4_0.5" depart="22.00" departLane="OrigionS1_0" departPos="5.10" departSpeed="0.00" departDelay="-0.50" arrival="144.00" arrivalLane="DestinationW4_0" arrivalPos="242.47" arrivalSpeed="27.79" duration="122.00" routeLength="2089.17" waitingTime="25.00" waitingCount="1" stopTime="0.00" timeLoss="47.90" rerouteNo="0" devices="tripinfo_s1-w4_0.5" vType="DEFAULT_VEHTYPE" speedFactor="1.02" vaporized=""/>
    <tripinfo id="s1-w4_0.4" depart="18.00" departLane="OrigionS1_0" departPos="5.10" departSpeed="0.00" departDelay="0.00" arrival="144.00" arrivalLane="DestinationW4_1" arrivalPos="242.47" arrivalSpeed="28.20" duration="126.00" routeLength="2089.17" waitingTime="32.00" waitingCount="1" stopTime="0.00" timeLoss="54.46" rerouteNo="0" devices="tripinfo_s1-w4_0.4" vType="DEFAULT_VEHTYPE" speedFactor="1.06" vaporized=""/>
    <tripinfo id="s1-w4_0.7" depart="31.00" departLane="OrigionS1_0" departPos="5.10" departSpeed="0.00" departDelay="-0.50" arrival="145.00" arrivalLane="DestinationW4_1" arrivalPos="242.47" arrivalSpeed="29.18" duration="114.00" routeLength="2089.17" waitingTime="16.00" waitingCount="1" stopTime="0.00" timeLoss="43.86" rerouteNo="0" devices="tripinfo_s1-w4_0.7" vType="DEFAULT_VEHTYPE" speedFactor="1.08" vaporized=""/>
    <tripinfo id="s1-w4_0.6" depart="27.00" departLane="OrigionS1_0" departPos="5.10" departSpeed="0.00" departDelay="0.00" arrival="148.00" arrivalLane="DestinationW4_0" arrivalPos="242.47" arrivalSpeed="24.60" duration="121.00" routeLength="2089.17" waitingTime="17.00" waitingCount="1" stopTime="0.00" timeLoss="38.60" rerouteNo="0" devices="tripinfo_s1-w4_0.6" vType="DEFAULT_VEHTYPE" speedFactor="0.92" vaporized=""/>
    <tripinfo id="s1-w4_0.9" depart="40.00" departLane="OrigionS1_0" departPos="5.10" departSpeed="0.00" departDelay="-0.50" arrival="150.00" arrivalLane="DestinationW4_1" arrivalPos="242.47" arrivalSpeed="24.21" duration="110.00" routeLength="2089.17" waitingTime="0.00" waitingCount="0" stopTime="0.00" timeLoss="24.21" rerouteNo="0" devices="tripinfo_s1-w4_0.9" vType="DEFAULT_VEHTYPE" speedFactor="0.88" vaporized=""/>
    <tripinfo id="e5-e1_0.0" depart="0.00" departLane="OrigionE5_0" departPos="5.10" departSpeed="0.00" departDelay="0.00" arrival="154.00" arrivalLane="DestinationE1_0" arrivalPos="250.56" arrivalSpeed="22.64" duration="154.00" routeLength="2162.05" waitingTime="23.00" waitingCount="2" stopTime="0.00" timeLoss="51.69" rerouteNo="0" devices="tripinfo_e5-e1_0.0" vType="DEFAULT_VEHTYPE" speedFactor="1.05" vaporized=""/>
    <tripinfo id="e5-e1_0.1" depart="7.00" departLane="OrigionE5_0" departPos="5.10" departSpeed="0.00" departDelay="-0.50" arrival="156.00" arrivalLane="DestinationE1_0" arrivalPos="250.56" arrivalSpeed="24.46" duration="149.00" routeLength="2162.05" waitingTime="19.00" waitingCount="2" stopTime="0.00" timeLoss="55.03" rerouteNo="0" devices="tripinfo_e5-e1_0.1" vType="DEFAULT_VEHTYPE" speedFactor="1.15" vaporized=""/>
    <tripinfo id="w4-s1_0.10" depart="45.00" departLane="OrigionW4_0" departPos="5.10" departSpeed="0.00" departDelay="0.00" arrival="179.00" arrivalLane="DestinationS1_0" arrivalPos="373.48" arrivalSpeed="29.48" duration="134.00" routeLength="2089.17" waitingTime="33.00" waitingCount="2" stopTime="0.00" timeLoss="64.93" rerouteNo="0" devices="tripinfo_w4-s1_0.10" vType="DEFAULT_VEHTYPE" speedFactor="1.09" vaporized=""/>
    <tripinfo id="w4-s1_0.12" depart="54.00" departLane="OrigionW4_0" departPos="5.10" departSpeed="0.00" departDelay="0.00" arrival="180.00" arrivalLane="DestinationS1_1" arrivalPos="373.48" arrivalSpeed="35.02" duration="126.00" routeLength="2089.17" waitingTime="25.00" waitingCount="1" stopTime="0.00" timeLoss="67.02" rerouteNo="0" devices="tripinfo_w4-s1_0.12" vType="DEFAULT_VEHTYPE" speedFactor="1.29" vaporized=""/>
    <tripinfo id="w4-s1_0.13" depart="58.00" departLane="OrigionW4_0" departPos="5.10" departSpeed="0.00" departDelay="-0.50" arrival="182.00" arrivalLane="DestinationS1_1" arrivalPos="373.48" arrivalSpeed="29.94" duration="124.00" routeLength="2089.17" waitingTime="22.00" waitingCount="1" stopTime="0.00" timeLoss="56.15" rerouteNo="0" devices="tripinfo_w4-s1_0.13" vType="DEFAULT_VEHTYPE" speedFactor="1.12" vaporized=""/>
    <tripinfo id="w4-s1_0.9" depart="40.00" departLane="OrigionW4_0" departPos="5.10" departSpeed="0.00" departDelay="-0.50" arrival="183.00" arrivalLane="DestinationS1_0" arrivalPos="373.48" arrivalSpeed="27.30" duration="143.00" routeLength="2089.17" waitingTime="38.00" waitingCount="2" stopTime="0.00" timeLoss="65.82" rerouteNo="0" devices="tripinfo_w4-s1_0.9" vType="DEFAULT_VEHTYPE" speedFactor="0.98" vaporized=""/>
    <tripinfo id="w4-s1_0.14" depart="63.00" departLane="OrigionW4_0" departPos="5.10" departSpeed="0.00" departDelay="0.00" arrival="184.00" arrivalLane="DestinationS1_1" arrivalPos="373.48" arrivalSpeed="30.41" duration="121.00" routeLength="2089.17" waitingTime="13.00" waitingCount="1" stopTime="0.00" timeLoss="52.23" rerouteNo="0" devices="tripinfo_w4-s1_0.14" vType="DEFAULT_VEHTYPE" speedFactor="1.10" vaporized=""/>
    <tripinfo id="w4-s1_0.16" depart="72.00" departLane="OrigionW4_0" departPos="5.10" departSpeed="0.00" departDelay="0.00" arrival="186.00" arrivalLane="DestinationS1_1" arrivalPos="373.48" arrivalSpeed="29.33" duration="114.00" routeLength="2089.17" waitingTime="4.00" waitingCount="1" stopTime="0.00" timeLoss="44.02" rerouteNo="0" devices="tripinfo_w4-s1_0.16" vType="DEFAULT_VEHTYPE" speedFactor="1.08" vaporized=""/>
    <tripinfo id="s4-n5_0.0" depart="0.00" departLane="OrigionS4_0" departPos="5.10" departSpeed="0.00" departDelay="0.00" arrival="186.00" arrivalLane="DestinationN5_0" arrivalPos="178.17" arrivalSpeed="11.40" duration="186.00" routeLength="3209.41" waitingTime="1.00" waitingCount="1" stopTime="0.00" timeLoss="29.09" rerouteNo="0" devices="tripinfo_s4-n5_0.0" vType="DEFAULT_VEHTYPE" speedFactor="0.91" vaporized=""/>
    <tripinfo id="w4-s1_0.7" depart="31.00" departLane="OrigionW4_0" departPos="5.10" departSpeed="0.00" departDelay="-0.50" arrival="188.00" arrivalLane="DestinationS1_0" arrivalPos="373.48" arrivalSpeed="22.83" duration="157.00" routeLength="2089.17" waitingTime="42.00" waitingCount="2" stopTime="0.00" timeLoss="69.00" rerouteNo="0" devices="tripinfo_w4-s1_0.7" vType="DEFAULT_VEHTYPE" speedFactor="0.86" vaporized=""/>
    <tripinfo id="w4-s1_0.11" depart="49.00" departLane="OrigionW4_0" departPos="5.10" departSpeed="0.00" departDelay="-0.50" arrival="188.00" arrivalLane="DestinationS1_1" arrivalPos="373.48" arrivalSpeed="28.04" duration="139.00" routeLength="2089.17" waitingTime="29.00" waitingCount="1" stopTime="0.00" timeLoss="65.60" rerouteNo="0" devices="tripinfo_w4-s1_0.11" vType="DEFAULT_VEHTYPE" speedFactor="1.03" vaporized=""/>
    <tripinfo id="s4-n5_0.1" depart="4.00" departLane="OrigionS4_0" departPos="5.10" departSpeed="0.00" departDelay="-0.50" arrival="188.00" arrivalLane="DestinationN5_0" arrivalPos="178.17" arrivalSpeed="13.90" duration="184.00" routeLength="3209.41" waitingTime="1.00" waitingCount="1" stopTime="0.00" timeLoss="44.80" rerouteNo="0" devices="tripinfo_s4-n5_0.1" vType="DEFAULT_VEHTYPE" speedFactor="1.03" vaporized=""/>
    <tripinfo id="w4-s1_0.8" depart="36.00" departLane="OrigionW4_0" departPos="5.10" departSpeed="0.00" departDelay="0.00" arrival="192.00" arrivalLane="DestinationS1_0" arrivalPos="373.48" arrivalSpeed="21.03" duration="156.00" routeLength="2089.17" waitingTime="36.00" waitingCount="1" stopTime="0.00" timeLoss="60.27" rerouteNo="0" devices="tripinfo_w4-s1_0.8" vType="DEFAULT_VEHTYPE" speedFactor="0.79" vaporized=""/>
    <tripinfo id="s4-n5_0.2" depart="9.00" departLane="OrigionS4_0" departPos="5.10" departSpeed="0.00" departDelay="0.00" arrival="194.00" arrivalLane="DestinationN5_0" arrivalPos="178.17" arrivalSpeed="11.31" duration="185.00" routeLength="3209.41" waitingTime="0.00" waitingCount="0" stopTime="0.00" timeLoss="22.73" rerouteNo="0" devices="tripinfo_s4-n5_0.2" vType="DEFAULT_VEHTYPE" speedFactor="0.88" vaporized=""/>
    <tripinfo id="s4-n5_0.3" depart="13.00" departLane="OrigionS4_0" departPos="5.10" departSpeed="0.00" departDelay="-0.50" arrival="195.00" arrivalLane="DestinationN5_0" arrivalPos="178.17" arrivalSpeed="13.23" duration="182.00" routeLength="3209.41" waitingTime="0.00" waitingCount="0" stopTime="0.00" timeLoss="36.92" rerouteNo="0" devices="tripinfo_s4-n5_0.3" vType="DEFAULT_VEHTYPE" speedFactor="0.98" vaporized=""/>
    <tripinfo id="e3-s5_0.1" depart="10.00" departLane="OrigionE3_0" departPos="5.10" departSpeed="0.00" departDelay="2.50" arrival="198.00" arrivalLane="DestinationS5_0" arrivalPos="746.72" arrivalSpeed="22.70" duration="188.00" routeLength="3631.94" waitingTime="16.00" waitingCount="3" stopTime="0.00" timeLoss="59.99" rerouteNo="0" devices="tripinfo_e3-s5_0.1" vType="DEFAULT_VEHTYPE" speedFactor="1.08" vaporized=""/>
    <tripinfo id="s2-n7_0.0" depart="0.00" departLane="OrigionS2_0" departPos="5.10" departSpeed="0.00" departDelay="0.00" arrival="199.00" arrivalLane="DestinationN7_0" arrivalPos="1062.75" arrivalSpeed="28.30" duration="199.00" routeLength="4715.40" waitingTime="0.00" waitingCount="0" stopTime="0.00" timeLoss="10.18" rerouteNo="0" devices="tripinfo_s2-n7_0.0" vType="DEFAULT_VEHTYPE" speedFactor="1.05" vaporized=""/>
    <tripinfo id="w2-n6_0.0" depart="0.00" departLane="OrigionW2_0" departPos="5.10" departSpeed="0.00" departDelay="0.00" arrival="200.00" arrivalLane="DestinationN6_0" arrivalPos="784.86" arrivalSpeed="24.00" duration="200.00" routeLength="4002.77" waitingTime="25.00" waitingCount="1" stopTime="0.00" timeLoss="57.73" rerouteNo="0" devices="tripinfo_w2-n6_0.0" vType="DEFAULT_VEHTYPE" speedFactor="1.11" vaporized=""/>
    <tripinfo id="e3-s5_0.0" depart="3.00" departLane="OrigionE3_0" departPos="5.10" departSpeed="0.00" departDelay="3.00" arrival="202.00" arrivalLane="DestinationS5_0" arrivalPos="746.72" arrivalSpeed="21.21" duration="199.00" routeLength="3631.94" waitingTime="18.00" waitingCount="3" stopTime="0.00" timeLoss="59.22" rerouteNo="0" devices="tripinfo_e3-s5_0.0" vType="DEFAULT_VEHTYPE" speedFactor="0.98" vaporized=""/>
    <tripinfo id="e3-s5_0.2" depart="18.00" departLane="OrigionE3_0" departPos="5.10" departSpeed="0.00" departDelay="3.00" arrival="205.00" arrivalLane="DestinationS5_0" arrivalPos="746.72" arrivalSpeed="20.93" duration="187.00" routeLength="3631.94" waitingTime="2.00" waitingCount="1" stopTime="0.00" timeLoss="42.52" rerouteNo="0" devices="tripinfo_e3-s5_0.2" vType="DEFAULT_VEHTYPE" speedFactor="0.96" vaporized=""/>
    <tripinfo id="s1-w4_0.13" depart="58.00" departLane="OrigionS1_0" departPos="5.10" departSpeed="0.00" departDelay="-0.50" arrival="206.00" arrivalLane="DestinationW4_0" arrivalPos="242.47" arrivalSpeed="22.89" duration="148.00" routeLength="2089.17" waitingTime="41.00" waitingCount="1" stopTime="0.00" timeLoss="73.46" rerouteNo="0" devices="tripinfo_s1-w4_0.13" vType="DEFAULT_VEHTYPE" speedFactor="1.01" vaporized=""/>
    <tripinfo id="s1-w4_0.8" depart="36.00" departLane="OrigionS1_0" departPos="5.10" departSpeed="0.00" departDelay="0.00" arrival="206.00" arrivalLane="DestinationW4_1" arrivalPos="242.47" arrivalSpeed="22.23" duration="170.00" routeLength="2089.17" waitingTime="54.00" waitingCount="2" stopTime="0.00" timeLoss="79.39" rerouteNo="0" devices="tripinfo_s1-w4_0.8" vType="DEFAULT_VEHTYPE" speedFactor="0.83" vaporized=""/>
    <tripinfo id="s1-w4_0.11" depart="49.00" departLane="OrigionS1_0" departPos="5.10" departSpeed="0.00" departDelay="-0.50" arrival="207.00" arrivalLane="DestinationW4_0" arrivalPos="242.47" arrivalSpeed="24.54" duration="158.00" routeLength="2089.17" waitingTime="48.00" waitingCount="1" stopTime="0.00" timeLoss="73.62" rerouteNo="0" devices="tripinfo_s1-w4_0.11" vType="DEFAULT_VEHTYPE" speedFactor="0.89" vaporized=""/>
    <tripinfo id="s1-w4_0.12" depart="54.00" departLane="OrigionS1_0" departPos="5.10" departSpeed="0.00" departDelay="0.00" arrival="209.00" arrivalLane="DestinationW4_1" arrivalPos="242.47" arrivalSpeed="27.14" duration="155.00" routeLength="2089.17" waitingTime="47.00" waitingCount="1" stopTime="0.00" timeLoss="79.96" rerouteNo="0" devices="tripinfo_s1-w4_0.12" vType="DEFAULT_VEHTYPE" speedFactor="1.01" vaporized=""/>
    <tripinfo id="n7-s3_0.0" depart="0.00" departLane="OrigionN7_0" departPos="5.10" departSpeed="0.00" departDelay="0.00" arrival="209.00" arrivalLane="DestinationS3_0" arrivalPos="924.28" arrivalSpeed="33.18" duration="209.00" routeLength="4886.27" waitingTime="39.00" waitingCount="1" stopTime="0.00" timeLoss="62.08" rerouteNo="0" devices="tripinfo_n7-s3_0.0" vType="DEFAULT_VEHTYPE" speedFactor="1.20" vaporized=""/>
    <tripinfo id="s1-w4_0.15" depart="67.00" departLane="OrigionS1_0" departPos="5.10" departSpeed="0.00" departDelay="-0.50" arrival="210.00" arrivalLane="DestinationW4_1" arrivalPos="242.47" arrivalSpeed="26.45" duration="143.00" routeLength="2089.17" waitingTime="41.00" waitingCount="1" stopTime="0.00" timeLoss="65.47" rerouteNo="0" devices="tripinfo_s1-w4_0.15" vType="DEFAULT_VEHTYPE" speedFactor="0.97" vaporized=""/>
    <tripinfo id="e4-w8_0.0" depart="0.00" departLane="OrigionE4_0" departPos="5.10" departSpeed="0.00" departDelay="0.00" arrival="210.00" arrivalLane="DestinationW8_0" arrivalPos="167.98" arrivalSpeed="23.85" duration="210.00" routeLength="3459.08" waitingTime="28.00" waitingCount="2" stopTime="0.00" timeLoss="65.66" rerouteNo="0" devices="tripinfo_e4-w8_0.0" vType="DEFAULT_VEHTYPE" speedFactor="1.08" vaporized=""/>
    <tripinfo id="s1-w4_0.16" depart="72.00" departLane="OrigionS1_0" departPos="5.10" departSpeed="0.00" departDelay="0.00" arrival="212.00" arrivalLane="DestinationW4_1" arrivalPos="242.47" arrivalSpeed="24.93" duration="140.00" routeLength="2089.17" waitingTime="34.00" waitingCount="1" stopTime="0.00" timeLoss="55.41" rerouteNo="0" devices="tripinfo_s1-w4_0.16" vType="DEFAULT_VEHTYPE" speedFactor="0.90" vaporized=""/>
    <tripinfo id="s1-w4_0.14" depart="63.00" departLane="OrigionS1_0" departPos="5.10" departSpeed="0.00" departDelay="0.00" arrival="213.00" arrivalLane="DestinationW4_1" arrivalPos="242.47" arrivalSpeed="26.24" duration="150.00" routeLength="2089.17" waitingTime="39.00" waitingCount="2" stopTime="0.00" timeLoss="76.42" rerouteNo="0" devices="tripinfo_s1-w4_0.14" vType="DEFAULT_VEHTYPE" speedFactor="1.03" vaporized=""/>
    <tripinfo id="e4-w8_0.1" depart="4.00" departLane="OrigionE4_0" departPos="5.10" departSpeed="0.00" departDelay="-0.50" arrival="213.00" arrivalLane="DestinationW8_0" arrivalPos="167.98" arrivalSpeed="21.61" duration="209.00" routeLength="3459.08" waitingTime="24.00" waitingCount="1" stopTime="0.00" timeLoss="56.10" rerouteNo="0" devices="tripinfo_e4-w8_0.1" vType="DEFAULT_VEHTYPE" speedFactor="1.02" vaporized=""/>
    <tripinfo id="s1-w4_0.10" depart="45.00" departLane="OrigionS1_0" departPos="5.10" departSpeed="0.00" departDelay="0.00" arrival="214.00" arrivalLane="DestinationW4_0" arrivalPos="242.47" arrivalSpeed="18.57" duration="169.00" routeLength="2089.17" waitingTime="40.00" waitingCount="1" stopTime="0.00" timeLoss="57.85" rerouteNo="0" devices="tripinfo_s1-w4_0.10" vType="DEFAULT_VEHTYPE" speedFactor="0.68" vaporized=""/>
    <tripinfo id="e4-w8_0.2" depart="9.00" departLane="OrigionE4_0" departPos="5.10" departSpeed="0.00" departDelay="0.00" arrival="214.00" arrivalLane="DestinationW8_0" arrivalPos="167.98" arrivalSpeed="23.45" duration="205.00" routeLength="3459.08" waitingTime="23.00" waitingCount="1" stopTime="0.00" timeLoss="61.06" rerouteNo="0" devices="tripinfo_e4-w8_0.2" vType="DEFAULT_VEHTYPE" speedFactor="1.08" vaporized=""/>
    <tripinfo id="e5-e1_0.2" depart="15.00" departLane="OrigionE5_0" departPos="5.10" departSpeed="0.00" departDelay="0.00" arrival="215.00" arrivalLane="DestinationE1_0" arrivalPos="250.56" arrivalSpeed="20.62" duration="200.00" routeLength="2162.05" waitingTime="53.00" waitingCount="3" stopTime="0.00" timeLoss="86.08" rerouteNo="0" devices="tripinfo_e5-e1_0.2" vType="DEFAULT_VEHTYPE" speedFactor="0.95" vaporized=""/>
    <tripinfo id="e5-e1_0.3" depart="22.00" departLane="OrigionE5_0" departPos="5.10" departSpeed="0.00" departDelay="-0.50" arrival="217.00" arrivalLane="DestinationE1_0" arrivalPos="250.56" arrivalSpeed="20.34" duration="195.00" routeLength="2162.05" waitingTime="45.00" waitingCount="3" stopTime="0.00" timeLoss="80.52" rerouteNo="0" devices="tripinfo_e5-e1_0.3" vType="DEFAULT_VEHTYPE" speedFactor="0.95" vaporized=""/>
    <tripinfo id="e5-e1_0.4" depart="30.00" departLane="OrigionE5_0" departPos="5.10" departSpeed="0.00" departDelay="0.00" arrival="218.00" arrivalLane="DestinationE1_0" arrivalPos="250.56" arrivalSpeed="20.71" duration="188.00" routeLength="2162.05" waitingTime="36.00" waitingCount="3" stopTime="0.00" timeLoss="78.68" rerouteNo="0" devices="tripinfo_e5-e1_0.4" vType="DEFAULT_VEHTYPE" speedFactor="0.99" vaporized=""/>
    <tripinfo id="e5-e1_0.5" depart="37.00" departLane="OrigionE5_0" departPos="5.10" departSpeed="0.00" departDelay="-0.50" arrival="220.00" arrivalLane="DestinationE1_0" arrivalPos="250.56" arrivalSpeed="19.56" duration="183.00" routeLength="2162.05" waitingTime="27.00" waitingCount="3" stopTime="0.00" timeLoss="66.22" rerouteNo="0" devices="tripinfo_e5-e1_0.5" vType="DEFAULT_VEHTYPE" speedFactor="0.92" vaporized=""/>
    <tripinfo id="e5-e1_0.6" depart="45.00" departLane="OrigionE5_0" departPos="5.10" departSpeed="0.00" departDelay="0.00" arrival="222.00" arrivalLane="DestinationE1_0" arrivalPos="250.56" arrivalSpeed="22.98" duration="177.00" routeLength="2162.05" waitingTime="23.00" waitingCount="3" stopTime="0.00" timeLoss="75.64" rerouteNo="0" devices="tripinfo_e5-e1_0.6" vType="DEFAULT_VEHTYPE" speedFactor="1.07" vaporized=""/>
    <tripinfo id="e5-e1_0.7" depart="52.00" departLane="OrigionE5_0" departPos="5.10" departSpeed="0.00" departDelay="-0.50" arrival="223.00" arrivalLane="DestinationE1_0" arrivalPos="250.56" arrivalSpeed="21.98" duration="171.00" routeLength="2162.05" waitingTime="16.00" waitingCount="3" stopTime="0.00" timeLoss="64.32" rerouteNo="0" devices="tripinfo_e5-e1_0.7" vType="DEFAULT_VEHTYPE" speedFactor="1.01" vaporized=""/>
    <tripinfo id="n2-s8_0.0" depart="0.00" departLane="OrigionN2_0" departPos="5.10" departSpeed="0.00" departDelay="0.00" arrival="223.00" arrivalLane="DestinationS8_0" arrivalPos="419.24" arrivalSpeed="19.63" duration="223.00" routeLength="3729.72" waitingTime="19.00" waitingCount="3" stopTime="0.00" timeLoss="52.37" rerouteNo="0" devices="tripinfo_n2-s8_0.0" vType="DEFAULT_VEHTYPE" speedFactor="0.91" vaporized=""/>
    <tripinfo id="n2-s8_0.1" depart="7.00" departLane="OrigionN2_0" departPos="5.10" departSpeed="0.00" departDelay="-0.50" arrival="225.00" arrivalLane="DestinationS8_0" arrivalPos="419.24" arrivalSpeed="22.68" duration="218.00" routeLength="3729.72" waitingTime="20.00" waitingCount="3" stopTime="0.00" timeLoss="72.18" rerouteNo="0" devices="tripinfo_n2-s8_0.1" vType="DEFAULT_VEHTYPE" speedFactor="1.07" vaporized=""/>
    <tripinfo id="e5-e1_0.8" depart="60.00" departLane="OrigionE5_0" departPos="5.10" departSpeed="0.00" departDelay="0.00" arrival="226.00" arrivalLane="DestinationE1_0" arrivalPos="250.56" arrivalSpeed="19.83" duration="166.00" routeLength="2162.05" waitingTime="11.00" waitingCount="1" stopTime="0.00" timeLoss="45.52" rerouteNo="0" devices="tripinfo_e5-e1_0.8" vType="DEFAULT_VEHTYPE" speedFactor="0.90" vaporized=""/>
    <tripinfo id="n2-s8_0.2" depart="15.00" departLane="OrigionN2_0" departPos="5.10" departSpeed="0.00" departDelay="0.00" arrival="226.00" arrivalLane="DestinationS8_0" arrivalPos="419.24" arrivalSpeed="22.20" duration="211.00" routeLength="3729.72" waitingTime="6.00" waitingCount="1" stopTime="0.00" timeLoss="58.51" rerouteNo="0" devices="tripinfo_n2-s8_0.2" vType="DEFAULT_VEHTYPE" speedFactor="1.01" vaporized=""/>
    <tripinfo id="n2-s8_0.3" depart="22.00" departLane="OrigionN2_0" departPos="5.10" departSpeed="0.00" departDelay="-0.50" arrival="228.00" arrivalLane="DestinationS8_0" arrivalPos="419.24" arrivalSpeed="22.94" duration="206.00" routeLength="3729.72" waitingTime="7.00" waitingCount="2" stopTime="0.00" timeLoss="57.13" rerouteNo="0" devices="tripinfo_n2-s8_0.3" vType="DEFAULT_VEHTYPE" speedFactor="1.04" vaporized=""/>
    <tripinfo id="n2-s8_0.4" depart="30.00" departLane="OrigionN2_0" departPos="5.10" departSpeed="0.00" departDelay="0.00" arrival="229.00" arrivalLane="DestinationS8_0" arrivalPos="419.24" arrivalSpeed="24.24" duration="199.00" routeLength="3729.72" waitingTime="7.00" waitingCount="2" stopTime="0.00" timeLoss="57.45" rerouteNo="0" devices="tripinfo_n2-s8_0.4" vType="DEFAULT_VEHTYPE" speedFactor="1.09" vaporized=""/>
    <tripinfo id="n4-w2_0.0" depart="0.00" departLane="OrigionN4_0" departPos="5.10" departSpeed="0.00" departDelay="0.00" arrival="232.00" arrivalLane="DestinationW2_0" arrivalPos="782.62" arrivalSpeed="23.41" duration="232.00" routeLength="3590.24" waitingTime="55.00" waitingCount="2" stopTime="0.00" timeLoss="89.12" rerouteNo="0" devices="tripinfo_n4-w2_0.0" vType="DEFAULT_VEHTYPE" speedFactor="1.08" vaporized=""/>
    <tripinfo id="w8-e4_0.0" depart="0.00" departLane="OrigionW8_0" departPos="5.10" departSpeed="0.00" departDelay="0.00" arrival="237.00" arrivalLane="DestinationE4_0" arrivalPos="384.36" arrivalSpeed="22.11" duration="237.00" routeLength="3459.08" waitingTime="45.00" waitingCount="2" stopTime="0.00" timeLoss="82.44" rerouteNo="0" devices="tripinfo_w8-e4_0.0" vType="DEFAULT_VEHTYPE" speedFactor="1.01" vaporized=""/>
    <tripinfo id="w7-s2_0.0" depart="0.00" departLane="OrigionW7_0" departPos="5.10" departSpeed="0.00" departDelay="0.00" arrival="240.00" arrivalLane="DestinationS2_0" arrivalPos="805.81" arrivalSpeed="13.86" duration="240.00" routeLength="3111.60" waitingTime="15.00" waitingCount="1" stopTime="0.00" timeLoss="46.00" rerouteNo="0" devices="tripinfo_w7-s2_0.0" vType="DEFAULT_VEHTYPE" speedFactor="1.04" vaporized=""/>
    <tripinfo id="w4-s1_0.18" depart="81.00" departLane="OrigionW4_0" departPos="5.10" departSpeed="0.00" departDelay="0.00" arrival="241.00" arrivalLane="DestinationS1_0" arrivalPos="373.48" arrivalSpeed="27.58" duration="160.00" routeLength="2089.17" waitingTime="49.00" waitingCount="3" stopTime="0.00" timeLoss="91.76" rerouteNo="0" devices="tripinfo_w4-s1_0.18" vType="DEFAULT_VEHTYPE" speedFactor="1.11" vaporized=""/>
    <tripinfo id="w4-s1_0.17" depart="76.00" departLane="OrigionW4_0" departPos="5.10" departSpeed="0.00" departDelay="-0.50" arrival="241.00" arrivalLane="DestinationS1_1" arrivalPos="373.48" arrivalSpeed="27.97" duration="165.00" routeLength="2089.17" waitingTime="53.00" waitingCount="3" stopTime="0.00" timeLoss="91.39" rerouteNo="0" devices="tripinfo_w4-s1_0.17" vType="DEFAULT_VEHTYPE" speedFactor="1.03" vaporized=""/>
    <tripinfo id="w4-s1_0.21" depart="94.00" departLane="OrigionW4_0" departPos="5.10" departSpeed="0.00" departDelay="-0.50" arrival="243.00" arrivalLane="DestinationS1_1" arrivalPos="373.48" arrivalSpeed="28.05" duration="149.00" routeLength="2089.17" waitingTime="41.00" waitingCount="1" stopTime="0.00" timeLoss="75.10" rerouteNo="0" devices="tripinfo_w4-s1_0.21" vType="DEFAULT_VEHTYPE" speedFactor="1.02" vaporized=""/>
    <tripinfo id="w8-e4_0.1" depart="4.00" departLane="OrigionW8_0" departPos="5.10" departSpeed="0.00" departDelay="-0.50" arrival="244.00" arrivalLane="DestinationE4_0" arrivalPos="384.36" arrivalSpeed="20.29" duration="240.00" routeLength="3459.08" waitingTime="40.00" waitingCount="2" stopTime="0.00" timeLoss="71.77" rerouteNo="0" devices="tripinfo_w8-e4_0.1" vType="DEFAULT_VEHTYPE" speedFactor="0.93" vaporized=""/>
    <tripinfo id="w8-e4_0.2" depart="9.00" departLane="OrigionW8_0" departPos="5.10" departSpeed="0.00" departDelay="0.00" arrival="245.00" arrivalLane="DestinationE4_0" arrivalPos="384.36" arrivalSpeed="21.53" duration="236.00" routeLength="3459.08" waitingTime="42.00" waitingCount="3" stopTime="0.00" timeLoss="101.32" rerouteNo="0" devices="tripinfo_w8-e4_0.2" vType="DEFAULT_VEHTYPE" speedFactor="1.16" vaporized=""/>