<?xml version="1.0" encoding="UTF-8"?>

<!-- generated on Wed Jan  9 21:49:52 2019 by Eclipse SUMO Version v1_0_1+0999-ba34606b5d
<configuration xmlns:xsi="http://www.w3.org/2001/XMLSchema-instance" xsi:noNamespaceSchemaLocation="http://sumo.dlr.de/xsd/sumoConfiguration.xsd">

    <input>
        <net-file value="Chj_final.net.xml"/>
        <route-files value="Chj_Demand5.rou.xml"/>
        <additional-files value="loops.xml"/>
    </input>

    <output>
        <queue-output value="FTCqueue5.xml"/>
        <summary-output value="FTCsummary5.xml"/>
        <tripinfo-output value="FTCtripinfo5.xml"/>
    </output>

    <time>
        <begin value="0"/>
        <end value="3600"/>
    </time>

    <report>
        <xml-validation value="never"/>
        <duration-log.disable value="true"/>
        <no-step-log value="true"/>
    </report>

    <traci_server>
        <remote-port value="43254"/>
    </traci_server>

    <random_number>
        <seed value="64"/>
    </random_number>

</configuration>
-->

<tripinfos xmlns:xsi="http://www.w3.org/2001/XMLSchema-instance" xsi:noNamespaceSchemaLocation="http://sumo.dlr.de/xsd/tripinfo_file.xsd">
    <tripinfo id="s1-w4_0.0" depart="0.00" departLane="OrigionS1_0" departPos="5.10" departSpeed="0.00" departDelay="0.00" arrival="82.00" arrivalLane="DestinationW4_0" arrivalPos="242.47" arrivalSpeed="26.79" duration="82.00" routeLength="2089.17" waitingTime="0.00" waitingCount="0" stopTime="0.00" timeLoss="7.34" rerouteNo="0" devices="tripinfo_s1-w4_0.0" vType="DEFAULT_VEHTYPE" speedFactor="1.01" vaporized=""/>
    <tripinfo id="w4-s1_0.0" depart="0.00" departLane="OrigionW4_0" departPos="5.10" departSpeed="0.00" departDelay="0.00" arrival="82.00" arrivalLane="DestinationS1_0" arrivalPos="373.48" arrivalSpeed="32.88" duration="82.00" routeLength="2089.17" waitingTime="0.00" waitingCount="0" stopTime="0.00" timeLoss="19.57" rerouteNo="0" devices="tripinfo_w4-s1_0.0" vType="DEFAULT_VEHTYPE" speedFactor="1.21" vaporized=""/>
    <tripinfo id="w4-s1_0.2" depart="14.00" departLane="OrigionW4_0" departPos="5.10" departSpeed="0.00" departDelay="-0.40" arrival="108.00" arrivalLane="DestinationS1_1" arrivalPos="373.48" arrivalSpeed="24.65" duration="94.00" routeLength="2089.17" waitingTime="0.00" waitingCount="0" stopTime="0.00" timeLoss="8.46" rerouteNo="0" devices="tripinfo_w4-s1_0.2" vType="DEFAULT_VEHTYPE" speedFactor="0.89" vaporized=""/>
    <tripinfo id="w4-s1_0.3" depart="21.00" departLane="OrigionW4_0" departPos="5.10" departSpeed="0.00" departDelay="-0.60" arrival="109.00" arrivalLane="DestinationS1_1" arrivalPos="373.48" arrivalSpeed="25.39" duration="88.00" routeLength="2089.17" waitingTime="0.00" waitingCount="0" stopTime="0.00" timeLoss="13.65" rerouteNo="0" devices="tripinfo_w4-s1_0.3" vType="DEFAULT_VEHTYPE" speedFactor="1.02" vaporized=""/>
    <tripinfo id="w4-s1_0.1" depart="7.00" departLane="OrigionW4_0" departPos="5.10" departSpeed="0.00" departDelay="-0.20" arrival="111.00" arrivalLane="DestinationS1_1" arrivalPos="373.48" arrivalSpeed="26.15" duration="104.00" routeLength="2089.17" waitingTime="7.00" waitingCount="1" stopTime="0.00" timeLoss="26.55" rerouteNo="0" devices="tripinfo_w4-s1_0.1" vType="DEFAULT_VEHTYPE" speedFactor="0.98" vaporized=""/>
    <tripinfo id="s1-w4_0.2" depart="14.00" departLane="OrigionS1_0" departPos="5.10" departSpeed="0.00" departDelay="-0.40" arrival="124.00" arrivalLane="DestinationW4_1" arrivalPos="242.47" arrivalSpeed="28.00" duration="110.00" routeLength="2089.17" waitingTime="18.00" waitingCount="1" stopTime="0.00" timeLoss="36.83" rerouteNo="0" devices="tripinfo_s1-w4_0.2" vType="DEFAULT_VEHTYPE" speedFactor="1.04" vaporized=""/>
    <tripinfo id="s1-w4_0.1" depart="7.00" departLane="OrigionS1_0" departPos="5.10" departSpeed="0.00" departDelay="-0.20" arrival="124.00" arrivalLane="DestinationW4_0" arrivalPos="242.47" arrivalSpeed="27.22" duration="117.00" routeLength="2089.17" waitingTime="24.00" waitingCount="1" stopTime="0.00" timeLoss="42.55" rerouteNo="0" devices="tripinfo_s1-w4_0.1" vType="DEFAULT_VEHTYPE" speedFactor="1.02" vaporized=""/>
    <tripinfo id="s1-w4_0.4" depart="28.00" departLane="OrigionS1_0" departPos="5.10" departSpeed="0.00" departDelay="-0.80" arrival="129.00" arrivalLane="DestinationW4_1" arrivalPos="242.47" arrivalSpeed="25.62" duration="101.00" routeLength="2089.17" waitingTime="2.00" waitingCount="1" stopTime="0.00" timeLoss="20.95" rerouteNo="0" devices="tripinfo_s1-w4_0.4" vType="DEFAULT_VEHTYPE" speedFactor="0.95" vaporized=""/>
    <tripinfo id="s1-w4_0.3" depart="21.00" departLane="OrigionS1_0" departPos="5.10" departSpeed="0.00" departDelay="-0.60" arrival="134.00" arrivalLane="DestinationW4_0" arrivalPos="242.47" arrivalSpeed="23.75" duration="113.00" routeLength="2089.17" waitingTime="9.00" waitingCount="1" stopTime="0.00" timeLoss="24.26" rerouteNo="0" devices="tripinfo_s1-w4_0.3" vType="DEFAULT_VEHTYPE" speedFactor="0.86" vaporized=""/>
    <tripinfo id="s1-w4_0.6" depart="43.00" departLane="OrigionS1_0" departPos="5.10" departSpeed="0.00" departDelay="-0.20" arrival="135.00" arrivalLane="DestinationW4_1" arrivalPos="242.47" arrivalSpeed="25.41" duration="92.00" routeLength="2089.17" waitingTime="0.00" waitingCount="0" stopTime="0.00" timeLoss="9.34" rerouteNo="0" devices="tripinfo_s1-w4_0.6" vType="DEFAULT_VEHTYPE" speedFactor="0.92" vaporized=""/>
    <tripinfo id="s1-w4_0.7" depart="50.00" departLane="OrigionS1_0" departPos="5.10" departSpeed="0.00" departDelay="-0.40" arrival="136.00" arrivalLane="DestinationW4_1" arrivalPos="242.47" arrivalSpeed="26.01" duration="86.00" routeLength="2089.17" waitingTime="0.00" waitingCount="0" stopTime="0.00" timeLoss="9.72" rerouteNo="0" devices="tripinfo_s1-w4_0.7" vType="DEFAULT_VEHTYPE" speedFactor="0.99" vaporized=""/>
    <tripinfo id="s1-w4_0.5" depart="36.00" departLane="OrigionS1_0" departPos="5.10" departSpeed="0.00" departDelay="0.00" arrival="136.00" arrivalLane="DestinationW4_0" arrivalPos="242.47" arrivalSpeed="22.75" duration="100.00" routeLength="2089.17" waitingTime="0.00" waitingCount="0" stopTime="0.00" timeLoss="10.39" rerouteNo="0" devices="tripinfo_s1-w4_0.5" vType="DEFAULT_VEHTYPE" speedFactor="0.85" vaporized=""/>
    <tripinfo id="s1-w4_0.8" depart="57.00" departLane="OrigionS1_0" departPos="5.10" departSpeed="0.00" departDelay="-0.60" arrival="138.00" arrivalLane="DestinationW4_1" arrivalPos="242.47" arrivalSpeed="26.54" duration="81.00" routeLength="2089.17" waitingTime="0.00" waitingCount="0" stopTime="0.00" timeLoss="9.89" rerouteNo="0" devices="tripinfo_s1-w4_0.8" vType="DEFAULT_VEHTYPE" speedFactor="1.07" vaporized=""/>
    <tripinfo id="e5-e1_0.0" depart="0.00" departLane="OrigionE5_0" departPos="5.10" departSpeed="0.00" departDelay="0.00" arrival="154.00" arrivalLane="DestinationE1_0" arrivalPos="250.56" arrivalSpeed="18.29" duration="154.00" routeLength="2162.05" waitingTime="6.00" waitingCount="1" stopTime="0.00" timeLoss="24.08" rerouteNo="0" devices="tripinfo_e5-e1_0.0" vType="DEFAULT_VEHTYPE" speedFactor="0.84" vaporized=""/>
    <tripinfo id="w4-s1_0.4" depart="28.00" departLane="OrigionW4_0" departPos="5.10" departSpeed="0.00" departDelay="-0.80" arrival="169.00" arrivalLane="DestinationS1_0" arrivalPos="373.48" arrivalSpeed="25.56" duration="141.00" routeLength="2089.17" waitingTime="37.00" waitingCount="2" stopTime="0.00" timeLoss="61.28" rerouteNo="0" devices="tripinfo_w4-s1_0.4" vType="DEFAULT_VEHTYPE" speedFactor="0.95" vaporized=""/>
    <tripinfo id="w4-s1_0.6" depart="43.00" departLane="OrigionW4_0" departPos="5.10" departSpeed="0.00" departDelay="-0.20" arrival="171.00" arrivalLane="DestinationS1_1" arrivalPos="373.48" arrivalSpeed="27.12" duration="128.00" routeLength="2089.17" waitingTime="17.00" waitingCount="2" stopTime="0.00" timeLoss="51.03" rerouteNo="0" devices="tripinfo_w4-s1_0.6" vType="DEFAULT_VEHTYPE" speedFactor="0.98" vaporized=""/>
    <tripinfo id="w4-s1_0.5" depart="36.00" departLane="OrigionW4_0" departPos="5.10" departSpeed="0.00" departDelay="0.00" arrival="172.00" arrivalLane="DestinationS1_0" arrivalPos="373.48" arrivalSpeed="25.05" duration="136.00" routeLength="2089.17" waitingTime="24.00" waitingCount="2" stopTime="0.00" timeLoss="52.43" rerouteNo="0" devices="tripinfo_w4-s1_0.5" vType="DEFAULT_VEHTYPE" speedFactor="0.90" vaporized=""/>
    <tripinfo id="w4-s1_0.8" depart="57.00" departLane="OrigionW4_0" departPos="5.10" departSpeed="0.00" departDelay="-0.60" arrival="173.00" arrivalLane="DestinationS1_1" arrivalPos="373.48" arrivalSpeed="26.33" duration="116.00" routeLength="2089.17" waitingTime="5.00" waitingCount="2" stopTime="0.00" timeLoss="38.11" rerouteNo="0" devices="tripinfo_w4-s1_0.8" vType="DEFAULT_VEHTYPE" speedFactor="0.97" vaporized=""/>
    <tripinfo id="w4-s1_0.7" depart="50.00" departLane="OrigionW4_0" departPos="5.10" departSpeed="0.00" departDelay="-0.40" arrival="173.00" arrivalLane="DestinationS1_0" arrivalPos="373.48" arrivalSpeed="25.67" duration="123.00" routeLength="2089.17" waitingTime="7.00" waitingCount="2" stopTime="0.00" timeLoss="44.05" rerouteNo="0" devices="tripinfo_w4-s1_0.7" vType="DEFAULT_VEHTYPE" speedFactor="0.95" vaporized=""/>
    <tripinfo id="e5-e1_0.1" depart="12.00" departLane="OrigionE5_0" departPos="5.10" departSpeed="0.00" departDelay="0.00" arrival="174.00" arrivalLane="DestinationE1_0" arrivalPos="250.56" arrivalSpeed="20.68" duration="162.00" routeLength="2162.05" waitingTime="27.00" waitingCount="2" stopTime="0.00" timeLoss="52.39" rerouteNo="0" devices="tripinfo_e5-e1_0.1" vType="DEFAULT_VEHTYPE" speedFactor="0.99" vaporized=""/>
    <tripinfo id="w4-s1_0.9" depart="64.00" departLane="OrigionW4_0" departPos="5.10" departSpeed="0.00" departDelay="-0.80" arrival="175.00" arrivalLane="DestinationS1_0" arrivalPos="373.48" arrivalSpeed="28.94" duration="111.00" routeLength="2089.17" waitingTime="1.00" waitingCount="1" stopTime="0.00" timeLoss="45.71" rerouteNo="0" devices="tripinfo_w4-s1_0.9" vType="DEFAULT_VEHTYPE" speedFactor="1.16" vaporized=""/>
    <tripinfo id="w4-s1_0.11" depart="79.00" departLane="OrigionW4_0" departPos="5.10" departSpeed="0.00" departDelay="-0.20" arrival="180.00" arrivalLane="DestinationS1_1" arrivalPos="373.48" arrivalSpeed="24.47" duration="101.00" routeLength="2089.17" waitingTime="0.00" waitingCount="0" stopTime="0.00" timeLoss="16.89" rerouteNo="0" devices="tripinfo_w4-s1_0.11" vType="DEFAULT_VEHTYPE" speedFactor="0.90" vaporized=""/>
    <tripinfo id="w4-s1_0.10" depart="72.00" departLane="OrigionW4_0" departPos="5.10" departSpeed="0.00" departDelay="0.00" arrival="180.00" arrivalLane="DestinationS1_0" arrivalPos="373.48" arrivalSpeed="22.16" duration="108.00" routeLength="2089.17" waitingTime="0.00" waitingCount="0" stopTime="0.00" timeLoss="15.94" rerouteNo="0" devices="tripinfo_w4-s1_0.10" vType="DEFAULT_VEHTYPE" speedFactor="0.82" vaporized=""/>
    <tripinfo id="e5-e1_0.2" depart="24.00" departLane="OrigionE5_0" departPos="5.10" departSpeed="0.00" departDelay="0.00" arrival="182.00" arrivalLane="DestinationE1_0" arrivalPos="250.56" arrivalSpeed="17.99" duration="158.00" routeLength="2162.05" waitingTime="8.00" waitingCount="1" stopTime="0.00" timeLoss="29.45" rerouteNo="0" devices="tripinfo_e5-e1_0.2" vType="DEFAULT_VEHTYPE" speedFactor="0.84" vaporized=""/>
    <tripinfo id="e5-e1_0.3" depart="36.00" departLane="OrigionE5_0" departPos="5.10" departSpeed="0.00" departDelay="0.00" arrival="183.00" arrivalLane="DestinationE1_0" arrivalPos="250.56" arrivalSpeed="21.07" duration="147.00" routeLength="2162.05" waitingTime="0.00" waitingCount="0" stopTime="0.00" timeLoss="34.21" rerouteNo="0" devices="tripinfo_e5-e1_0.3" vType="DEFAULT_VEHTYPE" speedFactor="0.96" vaporized=""/>
    <tripinfo id="s1-w4_0.10" depart="72.00" departLane="OrigionS1_0" departPos="5.10" departSpeed="0.00" departDelay="0.00" arrival="184.00" arrivalLane="DestinationW4_1" arrivalPos="242.47" arrivalSpeed="30.05" duration="112.00" routeLength="2089.17" waitingTime="22.00" waitingCount="1" stopTime="0.00" timeLoss="43.60" rerouteNo="0" devices="tripinfo_s1-w4_0.10" vType="DEFAULT_VEHTYPE" speedFactor="1.11" vaporized=""/>
    <tripinfo id="s1-w4_0.9" depart="64.00" departLane="OrigionS1_0" departPos="5.10" departSpeed="0.00" departDelay="-0.80" arrival="184.00" arrivalLane="DestinationW4_0" arrivalPos="242.47" arrivalSpeed="28.11" duration="120.00" routeLength="2089.17" waitingTime="27.00" waitingCount="1" stopTime="0.00" timeLoss="47.06" rerouteNo="0" devices="tripinfo_s1-w4_0.9" vType="DEFAULT_VEHTYPE" speedFactor="1.04" vaporized=""/>
    <tripinfo id="e5-e1_0.4" depart="48.00" departLane="OrigionE5_0" departPos="5.10" departSpeed="0.00" departDelay="0.00" arrival="185.00" arrivalLane="DestinationE1_0" arrivalPos="250.56" arrivalSpeed="18.90" duration="137.00" routeLength="2162.05" waitingTime="0.00" waitingCount="0" stopTime="0.00" timeLoss="17.24" rerouteNo="0" devices="tripinfo_e5-e1_0.4" vType="DEFAULT_VEHTYPE" speedFactor="0.91" vaporized=""/>
    <tripinfo id="e5-e1_0.5" depart="60.00" departLane="OrigionE5_0" departPos="5.10" departSpeed="0.00" departDelay="0.00" arrival="186.00" arrivalLane="DestinationE1_0" arrivalPos="250.56" arrivalSpeed="21.98" duration="126.00" routeLength="2162.05" waitingTime="0.00" waitingCount="0" stopTime="0.00" timeLoss="24.77" rerouteNo="0" devices="tripinfo_e5-e1_0.5" vType="DEFAULT_VEHTYPE" speedFactor="1.07" vaporized=""/>
    <tripinfo id="s1-w4_0.11" depart="79.00" departLane="OrigionS1_0" departPos="5.10" departSpeed="0.00" departDelay="-0.20" arrival="188.00" arrivalLane="DestinationW4_1" arrivalPos="242.47" arrivalSpeed="26.26" duration="109.00" routeLength="2089.17" waitingTime="11.00" waitingCount="1" stopTime="0.00" timeLoss="30.46" rerouteNo="0" devices="tripinfo_s1-w4_0.11" vType="DEFAULT_VEHTYPE" speedFactor="0.96" vaporized=""/>
    <tripinfo id="s1-w4_0.14" depart="100.00" departLane="OrigionS1_0" departPos="5.10" departSpeed="0.00" departDelay="-0.80" arrival="189.00" arrivalLane="DestinationW4_1" arrivalPos="242.47" arrivalSpeed="27.47" duration="89.00" routeLength="2089.17" waitingTime="0.00" waitingCount="0" stopTime="0.00" timeLoss="18.70" rerouteNo="0" devices="tripinfo_s1-w4_0.14" vType="DEFAULT_VEHTYPE" speedFactor="1.07" vaporized=""/>
    <tripinfo id="s1-w4_0.13" depart="93.00" departLane="OrigionS1_0" departPos="5.10" departSpeed="0.00" departDelay="-0.60" arrival="190.00" arrivalLane="DestinationW4_0" arrivalPos="242.47" arrivalSpeed="24.55" duration="97.00" routeLength="2089.17" waitingTime="0.00" waitingCount="0" stopTime="0.00" timeLoss="14.58" rerouteNo="0" devices="tripinfo_s1-w4_0.13" vType="DEFAULT_VEHTYPE" speedFactor="0.92" vaporized=""/>
    <tripinfo id="s1-w4_0.12" depart="86.00" departLane="OrigionS1_0" departPos="5.10" departSpeed="0.00" departDelay="-0.40" arrival="191.00" arrivalLane="DestinationW4_1" arrivalPos="242.47" arrivalSpeed="27.55" duration="105.00" routeLength="2089.17" waitingTime="8.00" waitingCount="1" stopTime="0.00" timeLoss="30.60" rerouteNo="0" devices="tripinfo_s1-w4_0.12" vType="DEFAULT_VEHTYPE" speedFactor="1.02" vaporized=""/>
    <tripinfo id="s1-w4_0.15" depart="108.00" departLane="OrigionS1_0" departPos="5.10" departSpeed="0.00" departDelay="0.00" arrival="192.00" arrivalLane="DestinationW4_1" arrivalPos="242.47" arrivalSpeed="29.67" duration="84.00" routeLength="2089.17" waitingTime="0.00" waitingCount="0" stopTime="0.00" timeLoss="14.46" rerouteNo="0" devices="tripinfo_s1-w4_0.15" vType="DEFAULT_VEHTYPE" speedFactor="1.09" vaporized=""/>
    <tripinfo id="s4-n5_0.0" depart="0.00" departLane="OrigionS4_0" departPos="5.10" departSpeed="0.00" departDelay="0.00" arrival="195.00" arrivalLane="DestinationN5_0" arrivalPos="178.17" arrivalSpeed="12.88" duration="195.00" routeLength="3209.41" waitingTime="10.00" waitingCount="2" stopTime="0.00" timeLoss="46.33" rerouteNo="0" devices="tripinfo_s4-n5_0.0" vType="DEFAULT_VEHTYPE" speedFactor="0.96" vaporized=""/>
    <tripinfo id="s4-n5_0.1" depart="7.00" departLane="OrigionS4_0" departPos="5.10" departSpeed="0.00" departDelay="-0.20" arrival="198.00" arrivalLane="DestinationN5_0" arrivalPos="178.17" arrivalSpeed="13.86" duration="191.00" routeLength="3209.41" waitingTime="7.00" waitingCount="1" stopTime="0.00" timeLoss="52.37" rerouteNo="0" devices="tripinfo_s4-n5_0.1" vType="DEFAULT_VEHTYPE" speedFactor="1.03" vaporized=""/>
    <tripinfo id="s4-n5_0.2" depart="14.00" departLane="OrigionS4_0" departPos="5.10" departSpeed="0.00" departDelay="-0.40" arrival="200.00" arrivalLane="DestinationN5_0" arrivalPos="178.17" arrivalSpeed="13.42" duration="186.00" routeLength="3209.41" waitingTime="5.00" waitingCount="1" stopTime="0.00" timeLoss="50.22" rerouteNo="0" devices="tripinfo_s4-n5_0.2" vType="DEFAULT_VEHTYPE" speedFactor="1.06" vaporized=""/>
    <tripinfo id="s1-w4_0.16" depart="115.00" departLane="OrigionS1_0" departPos="5.10" departSpeed="0.00" departDelay="-0.20" arrival="202.00" arrivalLane="DestinationW4_0" arrivalPos="242.47" arrivalSpeed="25.87" duration="87.00" routeLength="2089.17" waitingTime="0.00" waitingCount="0" stopTime="0.00" timeLoss="8.83" rerouteNo="0" devices="tripinfo_s1-w4_0.16" vType="DEFAULT_VEHTYPE" speedFactor="0.97" vaporized=""/>
    <tripinfo id="w4-s1_0.13" depart="93.00" departLane="OrigionW4_0" departPos="5.10" departSpeed="0.00" departDelay="-0.60" arrival="207.00" arrivalLane="DestinationS1_0" arrivalPos="373.48" arrivalSpeed="29.24" duration="114.00" routeLength="2089.17" waitingTime="25.00" waitingCount="1" stopTime="0.00" timeLoss="44.51" rerouteNo="0" devices="tripinfo_w4-s1_0.13" vType="DEFAULT_VEHTYPE" speedFactor="1.08" vaporized=""/>
    <tripinfo id="e4-w8_0.0" depart="0.00" departLane="OrigionE4_0" departPos="5.10" departSpeed="0.00" departDelay="0.00" arrival="215.00" arrivalLane="DestinationW8_0" arrivalPos="167.98" arrivalSpeed="21.18" duration="215.00" routeLength="3459.08" waitingTime="20.00" waitingCount="2" stopTime="0.00" timeLoss="53.18" rerouteNo="0" devices="tripinfo_e4-w8_0.0" vType="DEFAULT_VEHTYPE" speedFactor="0.96" vaporized=""/>
    <tripinfo id="w9-n3_0.0" depart="0.00" departLane="OrigionW9_0" departPos="5.10" departSpeed="0.00" departDelay="0.00" arrival="220.00" arrivalLane="DestinationN3_0" arrivalPos="1620.24" arrivalSpeed="28.68" duration="220.00" routeLength="4141.63" waitingTime="35.00" waitingCount="3" stopTime="0.00" timeLoss="81.20" rerouteNo="0" devices="tripinfo_w9-n3_0.0" vType="DEFAULT_VEHTYPE" speedFactor="1.08" vaporized=""/>
    <tripinfo id="w4-s1_0.16" depart="115.00" departLane="OrigionW4_0" departPos="5.10" departSpeed="0.00" departDelay="-0.20" arrival="228.00" arrivalLane="DestinationS1_1" arrivalPos="373.48" arrivalSpeed="29.60" duration="113.00" routeLength="2089.17" waitingTime="12.00" waitingCount="2" stopTime="0.00" timeLoss="44.17" rerouteNo="0" devices="tripinfo_w4-s1_0.16" vType="DEFAULT_VEHTYPE" speedFactor="1.09" vaporized=""/>
    <tripinfo id="w4-s1_0.14" depart="100.00" departLane="OrigionW4_0" departPos="5.10" departSpeed="0.00" departDelay="-0.80" arrival="228.00" arrivalLane="DestinationS1_0" arrivalPos="373.48" arrivalSpeed="27.25" duration="128.00" routeLength="2089.17" waitingTime="25.00" waitingCount="2" stopTime="0.00" timeLoss="53.48" rerouteNo="0" devices="tripinfo_w4-s1_0.14" vType="DEFAULT_VEHTYPE" speedFactor="1.02" vaporized=""/>
    <tripinfo id="w7-s7_0.1" depart="12.00" departLane="OrigionW7_0" departPos="5.10" departSpeed="0.00" departDelay="0.00" arrival="230.00" arrivalLane="DestinationS7_1" arrivalPos="133.58" arrivalSpeed="28.22" duration="218.00" routeLength="4156.16" waitingTime="8.00" waitingCount="2" stopTime="0.00" timeLoss="46.57" rerouteNo="0" devices="tripinfo_w7-s7_0.1" vType="DEFAULT_VEHTYPE" speedFactor="1.04" vaporized=""/>
    <tripinfo id="w4-s1_0.15" depart="108.00" departLane="OrigionW4_0" departPos="5.10" departSpeed="0.00" departDelay="0.00" arrival="230.00" arrivalLane="DestinationS1_1" arrivalPos="373.48" arrivalSpeed="29.93" duration="122.00" routeLength="2089.17" waitingTime="11.00" waitingCount="3" stopTime="0.00" timeLoss="53.00" rerouteNo="0" devices="tripinfo_w4-s1_0.15" vType="DEFAULT_VEHTYPE" speedFactor="1.10" vaporized=""/>
    <tripinfo id="e3-s5_0.3" depart="39.00" departLane="OrigionE3_0" departPos="5.10" departSpeed="0.00" departDelay="3.00" arrival="230.00" arrivalLane="DestinationS5_0" arrivalPos="746.72" arrivalSpeed="22.04" duration="191.00" routeLength="3631.94" waitingTime="15.00" waitingCount="3" stopTime="0.00" timeLoss="57.57" rerouteNo="0" devices="tripinfo_e3-s5_0.3" vType="DEFAULT_VEHTYPE" speedFactor="1.04" vaporized=""/>
    <tripinfo id="w7-s7_0.0" depart="3.00" departLane="OrigionW7_0" departPos="5.10" departSpeed="0.00" departDelay="3.00" arrival="231.00" arrivalLane="DestinationS7_0" arrivalPos="133.58" arrivalSpeed="26.83" duration="228.00" routeLength="4156.16" waitingTime="12.00" waitingCount="2" stopTime="0.00" timeLoss="44.30" rerouteNo="0" devices="tripinfo_w7-s7_0.0" vType="DEFAULT_VEHTYPE" speedFactor="0.97" vaporized=""/>
    <tripinfo id="w4-s1_0.17" depart="122.00" departLane="OrigionW4_0" departPos="5.10" departSpeed="0.00" departDelay="-0.40" arrival="231.00" arrivalLane="DestinationS1_1" arrivalPos="373.48" arrivalSpeed="33.63" duration="109.00" routeLength="2089.17" waitingTime="8.00" waitingCount="2" stopTime="0.00" timeLoss="46.69" rerouteNo="0" devices="tripinfo_w4-s1_0.17" vType="DEFAULT_VEHTYPE" speedFactor="1.21" vaporized=""/>
    <tripinfo id="w9-n3_0.1" depart="7.00" departLane="OrigionW9_0" departPos="5.10" departSpeed="0.00" departDelay="-0.20" arrival="231.00" arrivalLane="DestinationN3_0" arrivalPos="1620.24" arrivalSpeed="24.69" duration="224.00" routeLength="4141.63" waitingTime="34.00" waitingCount="2" stopTime="0.00" timeLoss="63.21" rerouteNo="0" devices="tripinfo_w9-n3_0.1" vType="DEFAULT_VEHTYPE" speedFactor="0.93" vaporized=""/>
    <tripinfo id="e3-s5_0.1" depart="15.00" departLane="OrigionE3_0" departPos="5.10" departSpeed="0.00" departDelay="3.00" arrival="231.00" arrivalLane="DestinationS5_0" arrivalPos="746.72" arrivalSpeed="23.65" duration="216.00" routeLength="3631.94" waitingTime="40.00" waitingCount="3" stopTime="0.00" timeLoss="91.48" rerouteNo="0" devices="tripinfo_e3-s5_0.1" vType="DEFAULT_VEHTYPE" speedFactor="1.11" vaporized=""/>
    <tripinfo id="w4-s1_0.12" depart="86.00" departLane="OrigionW4_0" departPos="5.10" departSpeed="0.00" departDelay="-0.40" arrival="232.00" arrivalLane="DestinationS1_0" arrivalPos="373.48" arrivalSpeed="24.39" duration="146.00" routeLength="2089.17" waitingTime="36.00" waitingCount="2" stopTime="0.00" timeLoss="59.66" rerouteNo="0" devices="tripinfo_w4-s1_0.12" vType="DEFAULT_VEHTYPE" speedFactor="0.88" vaporized=""/>
    <tripinfo id="e5-e1_0.6" depart="72.00" departLane="OrigionE5_0" departPos="5.10" departSpeed="0.00" departDelay="0.00" arrival="232.00" arrivalLane="DestinationE1_0" arrivalPos="250.56" arrivalSpeed="22.41" duration="160.00" routeLength="2162.05" waitingTime="28.00" waitingCount="2" stopTime="0.00" timeLoss="57.37" rerouteNo="0" devices="tripinfo_e5-e1_0.6" vType="DEFAULT_VEHTYPE" speedFactor="1.05" vaporized=""/>
    <tripinfo id="w4-s1_0.19" depart="136.00" departLane="OrigionW4_0" departPos="5.10" departSpeed="0.00" departDelay="-0.80" arrival="233.00" arrivalLane="DestinationS1_1" arrivalPos="373.48" arrivalSpeed="31.36" duration="97.00" routeLength="2089.17" waitingTime="5.00" waitingCount="1" stopTime="0.00" timeLoss="31.36" rerouteNo="0" devices="tripinfo_w4-s1_0.19" vType="DEFAULT_VEHTYPE" speedFactor="1.16" vaporized=""/>
    <tripinfo id="n4-w2_0.1" depart="7.00" departLane="OrigionN4_0" departPos="5.10" departSpeed="0.00" departDelay="-0.20" arrival="234.00" arrivalLane="DestinationW2_0" arrivalPos="782.62" arrivalSpeed="22.28" duration="227.00" routeLength="3590.24" waitingTime="48.00" waitingCount="2" stopTime="0.00" timeLoss="78.86" rerouteNo="0" devices="tripinfo_n4-w2_0.1" vType="DEFAULT_VEHTYPE" speedFactor="1.04" vaporized=""/>
    <tripinfo id="w4-s1_0.18" depart="129.00" departLane="OrigionW4_0" departPos="5.10" departSpeed="0.00" departDelay="-0.60" arrival="236.00" arrivalLane="DestinationS1_0" arrivalPos="373.48" arrivalSpeed="23.05" duration="107.00" routeLength="2089.17" waitingTime="0.00" waitingCount="0" stopTime="0.00" timeLoss="19.28" rerouteNo="0" devices="tripinfo_w4-s1_0.18" vType="DEFAULT_VEHTYPE" speedFactor="0.87" vaporized=""/>
    <tripinfo id="e5-e1_0.7" depart="84.00" departLane="OrigionE5_0" departPos="5.10" departSpeed="0.00" departDelay="0.00" arrival="237.00" arrivalLane="DestinationE1_0" arrivalPos="250.56" arrivalSpeed="20.34" duration="153.00" routeLength="2162.05" waitingTime="11.00" waitingCount="1" stopTime="0.00" timeLoss="38.73" rerouteNo="0" devices="tripinfo_e5-e1_0.7" vType="DEFAULT_VEHTYPE" speedFactor="0.95" vaporized=""/>
    <tripinfo id="w7-s2_0.0" depart="0.00" departLane="OrigionW7_0" departPos="5.10" departSpeed="0.00" departDelay="0.00" arrival="238.00" arrivalLane="DestinationS2_0" arrivalPos="805.81" arrivalSpeed="15.34" duration="238.00" routeLength="3111.60" waitingTime="13.00" waitingCount="1" stopTime="0.00" timeLoss="57.21" rerouteNo="0" devices="tripinfo_w7-s2_0.0" vType="DEFAULT_VEHTYPE" speedFactor="1.12" vaporized=""/>
    <tripinfo id="n4-w2_0.0" depart="0.00" departLane="OrigionN4_0" departPos="5.10" departSpeed="0.00" departDelay="0.00" arrival="238.00" arrivalLane="DestinationW2_0" arrivalPos="782.62" arrivalSpeed="21.16" duration="238.00" routeLength="3590.24" waitingTime="50.00" waitingCount="2" stopTime="0.00" timeLoss="80.52" rerouteNo="0" devices="tripinfo_n4-w2_0.0" vType="DEFAULT_VEHTYPE" speedFactor="0.98" vaporized=""/>
    <tripinfo id="w4-s1_0.20" depart="144.00" departLane="OrigionW4_0" departPos="5.10" departSpeed="0.00" departDelay="0.00" arrival="239.00" arrivalLane="DestinationS1_0" arrivalPos="373.48" arrivalSpeed="24.44" duration="95.00" routeLength="2089.17" waitingTime="0.00" waitingCount="0" stopTime="0.00" timeLoss="9.52" rerouteNo="0" devices="tripinfo_w4-s1_0.20" vType="DEFAULT_VEHTYPE" speedFactor="0.89" vaporized=""/>
    <tripinfo id="e5-e1_0.8" depart="96.00" departLane="OrigionE5_0" departPos="5.10" departSpeed="0.00" departDelay="0.00" arrival="239.00" arrivalLane="DestinationE1_0" arrivalPos="250.56" arrivalSpeed="20.85" duration="143.00" routeLength="2162.05" waitingTime="1.00" waitingCount="1" stopTime="0.00" timeLoss="31.92" rerouteNo="0" devices="tripinfo_e5-e1_0.8" vType="DEFAULT_VEHTYPE" speedFactor="0.98" vaporized=""/>
    <tripinfo id="e5-e1_0.9" depart="108.00" departLane="OrigionE5_0" departPos="5.10" departSpeed="0.00" departDelay="0.00" arrival="240.00" arrivalLane="DestinationE1_0" arrivalPos="250.56" arrivalSpeed="23.34" duration="132.00" routeLength="2162.05" waitingTime="0.00" waitingCount="0" stopTime="0.00" timeLoss="34.19" rerouteNo="0" devices="tripinfo_e5-e1_0.9" vType="DEFAULT_VEHTYPE" speedFactor="1.11" vaporized=""/>
    <tripinfo id="e5-e1_0.10" depart="120.00" departLane="OrigionE5_0" departPos="5.10" departSpeed="0.00" departDelay="0.00" arrival="242.00" arrivalLane="DestinationE1_0" arrivalPos="250.56" arrivalSpeed="21.07" duration="122.00" routeLength="2162.05" waitingTime="0.00" waitingCount="0" stopTime="0.00" timeLoss="12.97" rerouteNo="0" devices="tripinfo_e5-e1_0.10" vType="DEFAULT_VEHTYPE" speedFactor="1.00" vaporized=""/>
    <tripinfo id="s1-w4_0.18" depart="129.00" departLane="OrigionS1_0" departPos="5.10" departSpeed="0.00" departDelay="-0.60" arrival="245.00" arrivalLane="DestinationW4_0" arrivalPos="242.47" arrivalSpeed="25.65" duration="116.00" routeLength="2089.17" waitingTime="19.00" waitingCount="1" stopTime="0.00" timeLoss="36.73" rerouteNo="0" devices="tripinfo_s1-w4_0.18" vType="DEFAULT_VEHTYPE" speedFactor="0.96" vaporized=""/>
    <tripinfo id="e3-s5_0.4" depart="51.00" departLane="OrigionE3_0" departPos="5.10" departSpeed="0.00" departDelay="3.00" arrival="246.00" arrivalLane="DestinationS5_0" arrivalPos="746.72" arrivalSpeed="22.28" duration="195.00" routeLength="3631.94" waitingTime="26.00" waitingCount="2" stopTime="0.00" timeLoss="60.77" rerouteNo="0" devices="tripinfo_e3-s5_0.4" vType="DEFAULT_VEHTYPE" speedFactor="1.03" vaporized=""/>
    <tripinfo id="s1-w4_0.19" depart="136.00" departLane="OrigionS1_0" departPos="5.10" departSpeed="0.00" departDelay="-0.80" arrival="248.00" arrivalLane="DestinationW4_1" arrivalPos="242.47" arrivalSpeed="25.21" duration="112.00" routeLength="2089.17" waitingTime="10.00" waitingCount="1" stopTime="0.00" timeLoss="28.29" rerouteNo="0" devices="tripinfo_s1-w4_0.19" vType="DEFAULT_VEHTYPE" speedFactor="0.91" vaporized=""/>
    <tripinfo id="s1-w4_0.17" depart="122.00" departLane="OrigionS1_0" departPos="5.10" departSpeed="0.00" departDelay="-0.40" arrival="248.00" arrivalLane="DestinationW4_0" arrivalPos="242.47" arrivalSpeed="22.07" duration="126.00" routeLength="2089.17" waitingTime="19.00" waitingCount="1" stopTime="0.00" timeLoss="35.82" rerouteNo="0" devices="tripinfo_s1-w4_0.17" vType="DEFAULT_VEHTYPE" speedFactor="0.84" vaporized=""/>
    <tripinfo id="s1-w4_0.22" depart="158.00" departLane="OrigionS1_0" departPos="5.10" departSpeed="0.00" departDelay="-0.40" arrival="249.00" arrivalLane="DestinationW4_1" arrivalPos="242.47" arrivalSpeed="25.19" duration="91.00" routeLength="2089.17" waitingTime="0.00" waitingCount="0" stopTime="0.00" timeLoss="11.20" rerouteNo="0" devices="tripinfo_s1-w4_0.22" vType="DEFAULT_VEHTYPE" speedFactor="0.95" vaporized=""/>
    <tripinfo id="s1-w4_0.23" depart="165.00" departLane="OrigionS1_0" departPos="5.10" departSpeed="0.00" departDelay="-0.60" arrival="250.00" arrivalLane="DestinationW4_1" arrivalPos="242.47" arrivalSpeed="27.50" duration="85.00" routeLength="2089.17" waitingTime="0.00" waitingCount="0" stopTime="0.00" timeLoss="16.74" rerouteNo="0" devices="tripinfo_s1-w4_0.23" vType="DEFAULT_VEHTYPE" speedFactor="1.10" vaporized=""/>