<?xml version="1.0" encoding="UTF-8"?>

<!-- generated on Wed Jan  9 21:52:46 2019 by Eclipse SUMO Version v1_0_1+0999-ba34606b5d
<configuration xmlns:xsi="http://www.w3.org/2001/XMLSchema-instance" xsi:noNamespaceSchemaLocation="http://sumo.dlr.de/xsd/sumoConfiguration.xsd">

    <input>
        <net-file value="Chj_final.net.xml"/>
        <route-files value="Chj_Demand10.rou.xml"/>
        <additional-files value="loops.xml"/>
    </input>

    <output>
        <queue-output value="FTCqueue10.xml"/>
        <summary-output value="FTCsummary10.xml"/>
        <tripinfo-output value="FTCtripinfo10.xml"/>
    </output>

    <time>
        <begin value="0"/>
        <end value="3600"/>
    </time>

    <report>
        <xml-validation value="never"/>
        <duration-log.disable value="true"/>
        <no-step-log value="true"/>
    </report>

    <traci_server>
        <remote-port value="57553"/>
    </traci_server>

    <random_number>
        <seed value="12"/>
    </random_number>

</configuration>
-->

<tripinfos xmlns:xsi="http://www.w3.org/2001/XMLSchema-instance" xsi:noNamespaceSchemaLocation="http://sumo.dlr.de/xsd/tripinfo_file.xsd">
    <tripinfo id="s1-w4_0.0" depart="0.00" departLane="OrigionS1_0" departPos="5.10" departSpeed="0.00" departDelay="0.00" arrival="81.00" arrivalLane="DestinationW4_0" arrivalPos="242.47" arrivalSpeed="28.25" duration="81.00" routeLength="2089.17" waitingTime="0.00" waitingCount="0" stopTime="0.00" timeLoss="8.57" rerouteNo="0" devices="tripinfo_s1-w4_0.0" vType="DEFAULT_VEHTYPE" speedFactor="1.05" vaporized=""/>
    <tripinfo id="w4-s1_0.2" depart="7.00" departLane="OrigionW4_0" departPos="5.10" departSpeed="0.00" departDelay="-0.20" arrival="105.00" arrivalLane="DestinationS1_0" arrivalPos="373.48" arrivalSpeed="29.53" duration="98.00" routeLength="2089.17" waitingTime="9.00" waitingCount="1" stopTime="0.00" timeLoss="28.63" rerouteNo="0" devices="tripinfo_w4-s1_0.2" vType="DEFAULT_VEHTYPE" speedFactor="1.10" vaporized=""/>
    <tripinfo id="w4-s1_0.0" depart="0.00" departLane="OrigionW4_0" departPos="5.10" departSpeed="0.00" departDelay="0.00" arrival="108.00" arrivalLane="DestinationS1_0" arrivalPos="373.48" arrivalSpeed="28.64" duration="108.00" routeLength="2089.17" waitingTime="15.00" waitingCount="1" stopTime="0.00" timeLoss="34.52" rerouteNo="0" devices="tripinfo_w4-s1_0.0" vType="DEFAULT_VEHTYPE" speedFactor="1.04" vaporized=""/>
    <tripinfo id="w4-s1_0.6" depart="21.00" departLane="OrigionW4_0" departPos="5.10" departSpeed="0.00" departDelay="-0.60" arrival="113.00" arrivalLane="DestinationS1_1" arrivalPos="373.48" arrivalSpeed="29.04" duration="92.00" routeLength="2089.17" waitingTime="0.00" waitingCount="0" stopTime="0.00" timeLoss="21.58" rerouteNo="0" devices="tripinfo_w4-s1_0.6" vType="DEFAULT_VEHTYPE" speedFactor="1.07" vaporized=""/>
    <tripinfo id="w4-s1_0.4" depart="14.00" departLane="OrigionW4_0" departPos="5.10" departSpeed="0.00" departDelay="-0.40" arrival="114.00" arrivalLane="DestinationS1_0" arrivalPos="373.48" arrivalSpeed="26.06" duration="100.00" routeLength="2089.17" waitingTime="0.00" waitingCount="0" stopTime="0.00" timeLoss="19.64" rerouteNo="0" devices="tripinfo_w4-s1_0.4" vType="DEFAULT_VEHTYPE" speedFactor="0.95" vaporized=""/>
    <tripinfo id="w4-s1_0.1" depart="3.00" departLane="OrigionW4_0" departPos="5.10" departSpeed="0.00" departDelay="-0.60" arrival="115.00" arrivalLane="DestinationS1_0" arrivalPos="373.48" arrivalSpeed="25.26" duration="112.00" routeLength="2089.17" waitingTime="10.00" waitingCount="1" stopTime="0.00" timeLoss="30.04" rerouteNo="0" devices="tripinfo_w4-s1_0.1" vType="DEFAULT_VEHTYPE" speedFactor="0.92" vaporized=""/>
    <tripinfo id="w4-s1_0.3" depart="10.00" departLane="OrigionW4_0" departPos="5.10" departSpeed="0.00" departDelay="-0.80" arrival="117.00" arrivalLane="DestinationS1_0" arrivalPos="373.48" arrivalSpeed="28.42" duration="107.00" routeLength="2089.17" waitingTime="7.00" waitingCount="1" stopTime="0.00" timeLoss="35.65" rerouteNo="0" devices="tripinfo_w4-s1_0.3" vType="DEFAULT_VEHTYPE" speedFactor="1.07" vaporized=""/>
    <tripinfo id="w4-s1_0.7" depart="25.00" departLane="OrigionW4_0" departPos="5.10" departSpeed="0.00" departDelay="-0.20" arrival="119.00" arrivalLane="DestinationS1_0" arrivalPos="373.48" arrivalSpeed="24.97" duration="94.00" routeLength="2089.17" waitingTime="0.00" waitingCount="0" stopTime="0.00" timeLoss="10.01" rerouteNo="0" devices="tripinfo_w4-s1_0.7" vType="DEFAULT_VEHTYPE" speedFactor="0.90" vaporized=""/>
    <tripinfo id="w4-s1_0.5" depart="18.00" departLane="OrigionW4_0" departPos="5.10" departSpeed="0.00" departDelay="0.00" arrival="120.00" arrivalLane="DestinationS1_0" arrivalPos="373.48" arrivalSpeed="23.60" duration="102.00" routeLength="2089.17" waitingTime="0.00" waitingCount="0" stopTime="0.00" timeLoss="16.82" rerouteNo="0" devices="tripinfo_w4-s1_0.5" vType="DEFAULT_VEHTYPE" speedFactor="0.89" vaporized=""/>
    <tripinfo id="e5-e1_0.0" depart="0.00" departLane="OrigionE5_0" departPos="5.10" departSpeed="0.00" departDelay="0.00" arrival="125.00" arrivalLane="DestinationE1_0" arrivalPos="250.56" arrivalSpeed="20.90" duration="125.00" routeLength="2162.05" waitingTime="0.00" waitingCount="0" stopTime="0.00" timeLoss="11.26" rerouteNo="0" devices="tripinfo_e5-e1_0.0" vType="DEFAULT_VEHTYPE" speedFactor="0.96" vaporized=""/>
    <tripinfo id="e5-e1_0.1" depart="6.00" departLane="OrigionE5_0" departPos="5.10" departSpeed="0.00" departDelay="0.00" arrival="126.00" arrivalLane="DestinationE1_0" arrivalPos="250.56" arrivalSpeed="21.86" duration="120.00" routeLength="2162.05" waitingTime="0.00" waitingCount="0" stopTime="0.00" timeLoss="21.30" rerouteNo="0" devices="tripinfo_e5-e1_0.1" vType="DEFAULT_VEHTYPE" speedFactor="1.10" vaporized=""/>
    <tripinfo id="s1-w4_0.2" depart="7.00" departLane="OrigionS1_0" departPos="5.10" departSpeed="0.00" departDelay="-0.20" arrival="143.00" arrivalLane="DestinationW4_1" arrivalPos="242.47" arrivalSpeed="26.51" duration="136.00" routeLength="2089.17" waitingTime="38.00" waitingCount="1" stopTime="0.00" timeLoss="57.36" rerouteNo="0" devices="tripinfo_s1-w4_0.2" vType="DEFAULT_VEHTYPE" speedFactor="0.96" vaporized=""/>
    <tripinfo id="s1-w4_0.1" depart="3.00" departLane="OrigionS1_0" departPos="5.10" departSpeed="0.00" departDelay="-0.60" arrival="143.00" arrivalLane="DestinationW4_0" arrivalPos="242.47" arrivalSpeed="25.61" duration="140.00" routeLength="2089.17" waitingTime="42.00" waitingCount="1" stopTime="0.00" timeLoss="59.13" rerouteNo="0" devices="tripinfo_s1-w4_0.1" vType="DEFAULT_VEHTYPE" speedFactor="0.93" vaporized=""/>
    <tripinfo id="s1-w4_0.6" depart="21.00" departLane="OrigionS1_0" departPos="5.10" departSpeed="0.00" departDelay="-0.60" arrival="144.00" arrivalLane="DestinationW4_1" arrivalPos="242.47" arrivalSpeed="28.80" duration="123.00" routeLength="2089.17" waitingTime="30.00" waitingCount="1" stopTime="0.00" timeLoss="51.83" rerouteNo="0" devices="tripinfo_s1-w4_0.6" vType="DEFAULT_VEHTYPE" speedFactor="1.06" vaporized=""/>
    <tripinfo id="s1-w4_0.3" depart="10.00" departLane="OrigionS1_0" departPos="5.10" departSpeed="0.00" departDelay="-0.80" arrival="146.00" arrivalLane="DestinationW4_0" arrivalPos="242.47" arrivalSpeed="23.22" duration="136.00" routeLength="2089.17" waitingTime="32.00" waitingCount="1" stopTime="0.00" timeLoss="49.50" rerouteNo="0" devices="tripinfo_s1-w4_0.3" vType="DEFAULT_VEHTYPE" speedFactor="0.87" vaporized=""/>
    <tripinfo id="s1-w4_0.5" depart="18.00" departLane="OrigionS1_0" departPos="5.10" departSpeed="0.00" departDelay="0.00" arrival="148.00" arrivalLane="DestinationW4_1" arrivalPos="242.47" arrivalSpeed="25.22" duration="130.00" routeLength="2089.17" waitingTime="27.00" waitingCount="1" stopTime="0.00" timeLoss="46.61" rerouteNo="0" devices="tripinfo_s1-w4_0.5" vType="DEFAULT_VEHTYPE" speedFactor="0.91" vaporized=""/>
    <tripinfo id="s1-w4_0.4" depart="14.00" departLane="OrigionS1_0" departPos="5.10" departSpeed="0.00" departDelay="-0.40" arrival="148.00" arrivalLane="DestinationW4_0" arrivalPos="242.47" arrivalSpeed="23.73" duration="134.00" routeLength="2089.17" waitingTime="30.00" waitingCount="1" stopTime="0.00" timeLoss="47.83" rerouteNo="0" devices="tripinfo_s1-w4_0.4" vType="DEFAULT_VEHTYPE" speedFactor="0.88" vaporized=""/>
    <tripinfo id="s1-w4_0.8" depart="28.00" departLane="OrigionS1_0" departPos="5.10" departSpeed="0.00" departDelay="-0.80" arrival="149.00" arrivalLane="DestinationW4_1" arrivalPos="242.47" arrivalSpeed="25.71" duration="121.00" routeLength="2089.17" waitingTime="15.00" waitingCount="2" stopTime="0.00" timeLoss="49.95" rerouteNo="0" devices="tripinfo_s1-w4_0.8" vType="DEFAULT_VEHTYPE" speedFactor="1.06" vaporized=""/>
    <tripinfo id="s1-w4_0.7" depart="25.00" departLane="OrigionS1_0" departPos="5.10" departSpeed="0.00" departDelay="-0.20" arrival="149.00" arrivalLane="DestinationW4_0" arrivalPos="242.47" arrivalSpeed="26.01" duration="124.00" routeLength="2089.17" waitingTime="21.00" waitingCount="2" stopTime="0.00" timeLoss="52.07" rerouteNo="0" devices="tripinfo_s1-w4_0.7" vType="DEFAULT_VEHTYPE" speedFactor="1.05" vaporized=""/>
    <tripinfo id="e5-e1_0.2" depart="12.00" departLane="OrigionE5_0" departPos="5.10" departSpeed="0.00" departDelay="0.00" arrival="150.00" arrivalLane="DestinationE1_0" arrivalPos="250.56" arrivalSpeed="20.86" duration="138.00" routeLength="2162.05" waitingTime="4.00" waitingCount="1" stopTime="0.00" timeLoss="23.23" rerouteNo="0" devices="tripinfo_e5-e1_0.2" vType="DEFAULT_VEHTYPE" speedFactor="0.94" vaporized=""/>
    <tripinfo id="e5-e1_0.3" depart="18.00" departLane="OrigionE5_0" departPos="5.10" departSpeed="0.00" departDelay="0.00" arrival="155.00" arrivalLane="DestinationE1_0" arrivalPos="250.56" arrivalSpeed="19.45" duration="137.00" routeLength="2162.05" waitingTime="0.00" waitingCount="0" stopTime="0.00" timeLoss="17.95" rerouteNo="0" devices="tripinfo_e5-e1_0.3" vType="DEFAULT_VEHTYPE" speedFactor="0.91" vaporized=""/>
    <tripinfo id="e5-e1_0.4" depart="24.00" departLane="OrigionE5_0" departPos="5.10" departSpeed="0.00" departDelay="0.00" arrival="156.00" arrivalLane="DestinationE1_0" arrivalPos="250.56" arrivalSpeed="22.08" duration="132.00" routeLength="2162.05" waitingTime="0.00" waitingCount="0" stopTime="0.00" timeLoss="37.82" rerouteNo="0" devices="tripinfo_e5-e1_0.4" vType="DEFAULT_VEHTYPE" speedFactor="1.14" vaporized=""/>
    <tripinfo id="e5-e1_0.5" depart="30.00" departLane="OrigionE5_0" departPos="5.10" departSpeed="0.00" departDelay="0.00" arrival="158.00" arrivalLane="DestinationE1_0" arrivalPos="250.56" arrivalSpeed="20.70" duration="128.00" routeLength="2162.05" waitingTime="0.00" waitingCount="0" stopTime="0.00" timeLoss="13.09" rerouteNo="0" devices="tripinfo_e5-e1_0.5" vType="DEFAULT_VEHTYPE" speedFactor="0.94" vaporized=""/>
    <tripinfo id="e5-e1_0.6" depart="36.00" departLane="OrigionE5_0" departPos="5.10" departSpeed="0.00" departDelay="0.00" arrival="160.00" arrivalLane="DestinationE1_0" arrivalPos="250.56" arrivalSpeed="22.68" duration="124.00" routeLength="2162.05" waitingTime="0.00" waitingCount="0" stopTime="0.00" timeLoss="18.50" rerouteNo="0" devices="tripinfo_e5-e1_0.6" vType="DEFAULT_VEHTYPE" speedFactor="1.03" vaporized=""/>
    <tripinfo id="n4-w2_0.0" depart="0.00" departLane="OrigionN4_0" departPos="5.10" departSpeed="0.00" departDelay="0.00" arrival="169.00" arrivalLane="DestinationW2_0" arrivalPos="782.62" arrivalSpeed="21.83" duration="169.00" routeLength="3590.24" waitingTime="0.00" waitingCount="0" stopTime="0.00" timeLoss="13.35" rerouteNo="0" devices="tripinfo_n4-w2_0.0" vType="DEFAULT_VEHTYPE" speedFactor="0.99" vaporized=""/>
    <tripinfo id="e5-e1_0.7" depart="42.00" departLane="OrigionE5_0" departPos="5.10" departSpeed="0.00" departDelay="0.00" arrival="170.00" arrivalLane="DestinationE1_0" arrivalPos="250.56" arrivalSpeed="23.37" duration="128.00" routeLength="2162.05" waitingTime="8.00" waitingCount="1" stopTime="0.00" timeLoss="26.97" rerouteNo="0" devices="tripinfo_e5-e1_0.7" vType="DEFAULT_VEHTYPE" speedFactor="1.08" vaporized=""/>
    <tripinfo id="w4-s1_0.9" depart="32.00" departLane="OrigionW4_0" departPos="5.10" departSpeed="0.00" departDelay="-0.40" arrival="174.00" arrivalLane="DestinationS1_1" arrivalPos="373.48" arrivalSpeed="24.36" duration="142.00" routeLength="2089.17" waitingTime="40.00" waitingCount="1" stopTime="0.00" timeLoss="58.43" rerouteNo="0" devices="tripinfo_w4-s1_0.9" vType="DEFAULT_VEHTYPE" speedFactor="0.91" vaporized=""/>
    <tripinfo id="w4-s1_0.11" depart="39.00" departLane="OrigionW4_0" departPos="5.10" departSpeed="0.00" departDelay="-0.60" arrival="175.00" arrivalLane="DestinationS1_1" arrivalPos="373.48" arrivalSpeed="27.25" duration="136.00" routeLength="2089.17" waitingTime="37.00" waitingCount="1" stopTime="0.00" timeLoss="65.14" rerouteNo="0" devices="tripinfo_w4-s1_0.11" vType="DEFAULT_VEHTYPE" speedFactor="1.06" vaporized=""/>
    <tripinfo id="w4-s1_0.8" depart="28.00" departLane="OrigionW4_0" departPos="5.10" departSpeed="0.00" departDelay="-0.80" arrival="175.00" arrivalLane="DestinationS1_0" arrivalPos="373.48" arrivalSpeed="23.86" duration="147.00" routeLength="2089.17" waitingTime="45.00" waitingCount="1" stopTime="0.00" timeLoss="61.91" rerouteNo="0" devices="tripinfo_w4-s1_0.8" vType="DEFAULT_VEHTYPE" speedFactor="0.89" vaporized=""/>
    <tripinfo id="e5-e1_0.8" depart="48.00" departLane="OrigionE5_0" departPos="5.10" departSpeed="0.00" departDelay="0.00" arrival="176.00" arrivalLane="DestinationE1_0" arrivalPos="250.56" arrivalSpeed="19.29" duration="128.00" routeLength="2162.05" waitingTime="0.00" waitingCount="0" stopTime="0.00" timeLoss="10.91" rerouteNo="0" devices="tripinfo_e5-e1_0.8" vType="DEFAULT_VEHTYPE" speedFactor="0.92" vaporized=""/>
    <tripinfo id="w4-s1_0.12" depart="43.00" departLane="OrigionW4_0" departPos="5.10" departSpeed="0.00" departDelay="-0.20" arrival="177.00" arrivalLane="DestinationS1_1" arrivalPos="373.48" arrivalSpeed="27.41" duration="134.00" routeLength="2089.17" waitingTime="34.00" waitingCount="1" stopTime="0.00" timeLoss="58.52" rerouteNo="0" devices="tripinfo_w4-s1_0.12" vType="DEFAULT_VEHTYPE" speedFactor="1.01" vaporized=""/>
    <tripinfo id="w4-s1_0.10" depart="36.00" departLane="OrigionW4_0" departPos="5.10" departSpeed="0.00" departDelay="0.00" arrival="177.00" arrivalLane="DestinationS1_0" arrivalPos="373.48" arrivalSpeed="24.39" duration="141.00" routeLength="2089.17" waitingTime="36.00" waitingCount="1" stopTime="0.00" timeLoss="55.94" rerouteNo="0" devices="tripinfo_w4-s1_0.10" vType="DEFAULT_VEHTYPE" speedFactor="0.89" vaporized=""/>
    <tripinfo id="w4-s1_0.14" depart="50.00" departLane="OrigionW4_0" departPos="5.10" departSpeed="0.00" departDelay="-0.40" arrival="178.00" arrivalLane="DestinationS1_1" arrivalPos="373.48" arrivalSpeed="29.79" duration="128.00" routeLength="2089.17" waitingTime="29.00" waitingCount="1" stopTime="0.00" timeLoss="58.17" rerouteNo="0" devices="tripinfo_w4-s1_0.14" vType="DEFAULT_VEHTYPE" speedFactor="1.08" vaporized=""/>
    <tripinfo id="w4-s1_0.13" depart="46.00" departLane="OrigionW4_0" departPos="5.10" departSpeed="0.00" departDelay="-0.80" arrival="178.00" arrivalLane="DestinationS1_0" arrivalPos="373.48" arrivalSpeed="25.32" duration="132.00" routeLength="2089.17" waitingTime="32.00" waitingCount="1" stopTime="0.00" timeLoss="58.48" rerouteNo="0" devices="tripinfo_w4-s1_0.13" vType="DEFAULT_VEHTYPE" speedFactor="1.03" vaporized=""/>
    <tripinfo id="w4-s1_0.17" depart="61.00" departLane="OrigionW4_0" departPos="5.10" departSpeed="0.00" departDelay="-0.20" arrival="180.00" arrivalLane="DestinationS1_0" arrivalPos="373.48" arrivalSpeed="26.85" duration="119.00" routeLength="2089.17" waitingTime="17.00" waitingCount="1" stopTime="0.00" timeLoss="44.39" rerouteNo="0" devices="tripinfo_w4-s1_0.17" vType="DEFAULT_VEHTYPE" speedFactor="1.02" vaporized=""/>
    <tripinfo id="e5-e1_0.9" depart="54.00" departLane="OrigionE5_0" departPos="5.10" departSpeed="0.00" departDelay="0.00" arrival="180.00" arrivalLane="DestinationE1_0" arrivalPos="250.56" arrivalSpeed="19.96" duration="126.00" routeLength="2162.05" waitingTime="0.00" waitingCount="0" stopTime="0.00" timeLoss="10.58" rerouteNo="0" devices="tripinfo_e5-e1_0.9" vType="DEFAULT_VEHTYPE" speedFactor="0.94" vaporized=""/>
    <tripinfo id="e5-e1_0.10" depart="60.00" departLane="OrigionE5_0" departPos="5.10" departSpeed="0.00" departDelay="0.00" arrival="192.00" arrivalLane="DestinationE1_0" arrivalPos="250.56" arrivalSpeed="19.44" duration="132.00" routeLength="2162.05" waitingTime="0.00" waitingCount="0" stopTime="0.00" timeLoss="9.64" rerouteNo="0" devices="tripinfo_e5-e1_0.10" vType="DEFAULT_VEHTYPE" speedFactor="0.89" vaporized=""/>
    <tripinfo id="e5-e1_0.11" depart="66.00" departLane="OrigionE5_0" departPos="5.10" departSpeed="0.00" departDelay="0.00" arrival="193.00" arrivalLane="DestinationE1_0" arrivalPos="250.56" arrivalSpeed="21.71" duration="127.00" routeLength="2162.05" waitingTime="0.00" waitingCount="0" stopTime="0.00" timeLoss="21.67" rerouteNo="0" devices="tripinfo_e5-e1_0.11" vType="DEFAULT_VEHTYPE" speedFactor="1.03" vaporized=""/>
    <tripinfo id="s4-n5_0.0" depart="0.00" departLane="OrigionS4_0" departPos="5.10" departSpeed="0.00" departDelay="0.00" arrival="202.00" arrivalLane="DestinationN5_0" arrivalPos="178.17" arrivalSpeed="11.67" duration="202.00" routeLength="3209.41" waitingTime="5.00" waitingCount="1" stopTime="0.00" timeLoss="44.04" rerouteNo="0" devices="tripinfo_s4-n5_0.0" vType="DEFAULT_VEHTYPE" speedFactor="0.90" vaporized=""/>
    <tripinfo id="s1-w4_0.9" depart="32.00" departLane="OrigionS1_0" departPos="5.10" departSpeed="0.00" departDelay="-0.40" arrival="203.00" arrivalLane="DestinationW4_0" arrivalPos="242.47" arrivalSpeed="25.19" duration="171.00" routeLength="2089.17" waitingTime="59.00" waitingCount="2" stopTime="0.00" timeLoss="90.95" rerouteNo="0" devices="tripinfo_s1-w4_0.9" vType="DEFAULT_VEHTYPE" speedFactor="0.95" vaporized=""/>
    <tripinfo id="s4-n5_0.1" depart="3.00" departLane="OrigionS4_0" departPos="5.10" departSpeed="0.00" departDelay="-0.60" arrival="204.00" arrivalLane="DestinationN5_0" arrivalPos="178.17" arrivalSpeed="13.47" duration="201.00" routeLength="3209.41" waitingTime="3.00" waitingCount="1" stopTime="0.00" timeLoss="58.04" rerouteNo="0" devices="tripinfo_s4-n5_0.1" vType="DEFAULT_VEHTYPE" speedFactor="1.00" vaporized=""/>
    <tripinfo id="s1-w4_0.11" depart="39.00" departLane="OrigionS1_0" departPos="5.10" departSpeed="0.00" departDelay="-0.60" arrival="205.00" arrivalLane="DestinationW4_1" arrivalPos="242.47" arrivalSpeed="26.25" duration="166.00" routeLength="2089.17" waitingTime="54.00" waitingCount="2" stopTime="0.00" timeLoss="86.43" rerouteNo="0" devices="tripinfo_s1-w4_0.11" vType="DEFAULT_VEHTYPE" speedFactor="0.96" vaporized=""/>
    <tripinfo id="s1-w4_0.13" depart="46.00" departLane="OrigionS1_0" departPos="5.10" departSpeed="0.00" departDelay="-0.80" arrival="206.00" arrivalLane="DestinationW4_1" arrivalPos="242.47" arrivalSpeed="27.39" duration="160.00" routeLength="2089.17" waitingTime="53.00" waitingCount="2" stopTime="0.00" timeLoss="94.45" rerouteNo="0" devices="tripinfo_s1-w4_0.13" vType="DEFAULT_VEHTYPE" speedFactor="1.15" vaporized=""/>
    <tripinfo id="s1-w4_0.10" depart="36.00" departLane="OrigionS1_0" departPos="5.10" departSpeed="0.00" departDelay="0.00" arrival="206.00" arrivalLane="DestinationW4_0" arrivalPos="242.47" arrivalSpeed="23.56" duration="170.00" routeLength="2089.17" waitingTime="56.00" waitingCount="2" stopTime="0.00" timeLoss="83.90" rerouteNo="0" devices="tripinfo_s1-w4_0.10" vType="DEFAULT_VEHTYPE" speedFactor="0.88" vaporized=""/>
    <tripinfo id="s4-n5_0.2" depart="7.00" departLane="OrigionS4_0" departPos="5.10" departSpeed="0.00" departDelay="-0.20" arrival="206.00" arrivalLane="DestinationN5_0" arrivalPos="178.17" arrivalSpeed="16.23" duration="199.00" routeLength="3209.41" waitingTime="1.00" waitingCount="1" stopTime="0.00" timeLoss="82.23" rerouteNo="0" devices="tripinfo_s4-n5_0.2" vType="DEFAULT_VEHTYPE" speedFactor="1.23" vaporized=""/>
    <tripinfo id="s1-w4_0.15" depart="54.00" departLane="OrigionS1_0" departPos="5.10" departSpeed="0.00" departDelay="0.00" arrival="207.00" arrivalLane="DestinationW4_1" arrivalPos="242.47" arrivalSpeed="26.66" duration="153.00" routeLength="2089.17" waitingTime="50.00" waitingCount="2" stopTime="0.00" timeLoss="81.60" rerouteNo="0" devices="tripinfo_s1-w4_0.15" vType="DEFAULT_VEHTYPE" speedFactor="1.05" vaporized=""/>
    <tripinfo id="s1-w4_0.12" depart="43.00" departLane="OrigionS1_0" departPos="5.10" departSpeed="0.00" departDelay="-0.20" arrival="207.00" arrivalLane="DestinationW4_0" arrivalPos="242.47" arrivalSpeed="26.01" duration="164.00" routeLength="2089.17" waitingTime="54.00" waitingCount="2" stopTime="0.00" timeLoss="85.43" rerouteNo="0" devices="tripinfo_s1-w4_0.12" vType="DEFAULT_VEHTYPE" speedFactor="0.96" vaporized=""/>
    <tripinfo id="s1-w4_0.14" depart="50.00" departLane="OrigionS1_0" departPos="5.10" departSpeed="0.00" departDelay="-0.40" arrival="208.00" arrivalLane="DestinationW4_0" arrivalPos="242.47" arrivalSpeed="26.52" duration="158.00" routeLength="2089.17" waitingTime="49.00" waitingCount="2" stopTime="0.00" timeLoss="88.11" rerouteNo="0" devices="tripinfo_s1-w4_0.14" vType="DEFAULT_VEHTYPE" speedFactor="1.08" vaporized=""/>
    <tripinfo id="s1-w4_0.16" depart="57.00" departLane="OrigionS1_0" departPos="5.10" departSpeed="0.00" departDelay="-0.60" arrival="209.00" arrivalLane="DestinationW4_1" arrivalPos="242.47" arrivalSpeed="28.69" duration="152.00" routeLength="2089.17" waitingTime="45.00" waitingCount="1" stopTime="0.00" timeLoss="83.41" rerouteNo="0" devices="tripinfo_s1-w4_0.16" vType="DEFAULT_VEHTYPE" speedFactor="1.11" vaporized=""/>
    <tripinfo id="s4-n5_0.3" depart="10.00" departLane="OrigionS4_0" departPos="5.10" departSpeed="0.00" departDelay="-0.80" arrival="209.00" arrivalLane="DestinationN5_0" arrivalPos="178.17" arrivalSpeed="13.70" duration="199.00" routeLength="3209.41" waitingTime="1.00" waitingCount="1" stopTime="0.00" timeLoss="59.18" rerouteNo="0" devices="tripinfo_s4-n5_0.3" vType="DEFAULT_VEHTYPE" speedFactor="1.02" vaporized=""/>
    <tripinfo id="w2-n6_0.0" depart="0.00" departLane="OrigionW2_0" departPos="5.10" departSpeed="0.00" departDelay="0.00" arrival="210.00" arrivalLane="DestinationN6_0" arrivalPos="784.86" arrivalSpeed="26.58" duration="210.00" routeLength="4002.77" waitingTime="41.00" waitingCount="1" stopTime="0.00" timeLoss="78.81" rerouteNo="0" devices="tripinfo_w2-n6_0.0" vType="DEFAULT_VEHTYPE" speedFactor="1.21" vaporized=""/>
    <tripinfo id="e5-e1_0.12" depart="72.00" departLane="OrigionE5_0" departPos="5.10" departSpeed="0.00" departDelay="0.00" arrival="213.00" arrivalLane="DestinationE1_0" arrivalPos="250.56" arrivalSpeed="19.65" duration="141.00" routeLength="2162.05" waitingTime="5.00" waitingCount="1" stopTime="0.00" timeLoss="20.15" rerouteNo="0" devices="tripinfo_e5-e1_0.12" vType="DEFAULT_VEHTYPE" speedFactor="0.89" vaporized=""/>
    <tripinfo id="e5-e1_0.13" depart="78.00" departLane="OrigionE5_0" departPos="5.10" departSpeed="0.00" departDelay="0.00" arrival="215.00" arrivalLane="DestinationE1_0" arrivalPos="250.56" arrivalSpeed="23.47" duration="137.00" routeLength="2162.05" waitingTime="4.00" waitingCount="1" stopTime="0.00" timeLoss="42.39" rerouteNo="0" devices="tripinfo_e5-e1_0.13" vType="DEFAULT_VEHTYPE" speedFactor="1.15" vaporized=""/>
    <tripinfo id="n2-s8_0.0" depart="0.00" departLane="OrigionN2_0" departPos="5.10" departSpeed="0.00" departDelay="0.00" arrival="217.00" arrivalLane="DestinationS8_0" arrivalPos="419.24" arrivalSpeed="24.44" duration="217.00" routeLength="3729.72" waitingTime="38.00" waitingCount="3" stopTime="0.00" timeLoss="82.22" rerouteNo="0" devices="tripinfo_n2-s8_0.0" vType="DEFAULT_VEHTYPE" speedFactor="1.15" vaporized=""/>
    <tripinfo id="s6-w5_0.0" depart="0.00" departLane="OrigionS6_0" departPos="5.10" departSpeed="0.00" departDelay="0.00" arrival="218.00" arrivalLane="DestinationW5_0" arrivalPos="259.12" arrivalSpeed="13.53" duration="218.00" routeLength="3323.55" waitingTime="54.00" waitingCount="2" stopTime="0.00" timeLoss="89.01" rerouteNo="0" devices="tripinfo_s6-w5_0.0" vType="DEFAULT_VEHTYPE" speedFactor="1.00" vaporized=""/>
    <tripinfo id="n2-s8_0.1" depart="6.00" departLane="OrigionN2_0" departPos="5.10" departSpeed="0.00" departDelay="0.00" arrival="218.00" arrivalLane="DestinationS8_0" arrivalPos="419.24" arrivalSpeed="25.15" duration="212.00" routeLength="3729.72" waitingTime="32.00" waitingCount="3" stopTime="0.00" timeLoss="81.92" rerouteNo="0" devices="tripinfo_n2-s8_0.1" vType="DEFAULT_VEHTYPE" speedFactor="1.19" vaporized=""/>
    <tripinfo id="w2-n6_0.1" depart="6.00" departLane="OrigionW2_0" departPos="5.10" departSpeed="0.00" departDelay="0.00" arrival="219.00" arrivalLane="DestinationN6_0" arrivalPos="784.86" arrivalSpeed="21.13" duration="213.00" routeLength="4002.77" waitingTime="22.00" waitingCount="1" stopTime="0.00" timeLoss="52.61" rerouteNo="0" devices="tripinfo_w2-n6_0.1" vType="DEFAULT_VEHTYPE" speedFactor="0.99" vaporized=""/>
    <tripinfo id="s6-w5_0.1" depart="3.00" departLane="OrigionS6_0" departPos="5.10" departSpeed="0.00" departDelay="-0.60" arrival="220.00" arrivalLane="DestinationW5_0" arrivalPos="259.12" arrivalSpeed="13.44" duration="217.00" routeLength="3323.55" waitingTime="46.00" waitingCount="2" stopTime="0.00" timeLoss="85.42" rerouteNo="0" devices="tripinfo_s6-w5_0.1" vType="DEFAULT_VEHTYPE" speedFactor="0.98" vaporized=""/>
    <tripinfo id="s6-w5_0.2" depart="7.00" departLane="OrigionS6_0" departPos="5.10" departSpeed="0.00" departDelay="-0.20" arrival="223.00" arrivalLane="DestinationW5_0" arrivalPos="259.12" arrivalSpeed="14.00" duration="216.00" routeLength="3323.55" waitingTime="44.00" waitingCount="2" stopTime="0.00" timeLoss="90.83" rerouteNo="0" devices="tripinfo_s6-w5_0.2" vType="DEFAULT_VEHTYPE" speedFactor="1.04" vaporized=""/>
    <tripinfo id="s6-w5_0.3" depart="10.00" departLane="OrigionS6_0" departPos="5.10" departSpeed="0.00" departDelay="-0.80" arrival="226.00" arrivalLane="DestinationW5_0" arrivalPos="259.12" arrivalSpeed="13.48" duration="216.00" routeLength="3323.55" waitingTime="41.00" waitingCount="2" stopTime="0.00" timeLoss="82.28" rerouteNo="0" devices="tripinfo_s6-w5_0.3" vType="DEFAULT_VEHTYPE" speedFactor="0.97" vaporized=""/>
    <tripinfo id="n2-s8_0.2" depart="12.00" departLane="OrigionN2_0" departPos="5.10" departSpeed="0.00" departDelay="0.00" arrival="229.00" arrivalLane="DestinationS8_0" arrivalPos="419.24" arrivalSpeed="22.00" duration="217.00" routeLength="3729.72" waitingTime="21.00" waitingCount="3" stopTime="0.00" timeLoss="64.13" rerouteNo="0" devices="tripinfo_n2-s8_0.2" vType="DEFAULT_VEHTYPE" speedFactor="1.01" vaporized=""/>
    <tripinfo id="n2-s8_0.3" depart="18.00" departLane="OrigionN2_0" departPos="5.10" departSpeed="0.00" departDelay="0.00" arrival="230.00" arrivalLane="DestinationS8_0" arrivalPos="419.24" arrivalSpeed="22.20" duration="212.00" routeLength="3729.72" waitingTime="15.00" waitingCount="3" stopTime="0.00" timeLoss="64.77" rerouteNo="0" devices="tripinfo_n2-s8_0.3" vType="DEFAULT_VEHTYPE" speedFactor="1.05" vaporized=""/>
    <tripinfo id="w4-s1_0.16" depart="57.00" departLane="OrigionW4_0" departPos="5.10" departSpeed="0.00" departDelay="-0.60" arrival="231.00" arrivalLane="DestinationS1_1" arrivalPos="373.48" arrivalSpeed="26.65" duration="174.00" routeLength="2089.17" waitingTime="71.00" waitingCount="2" stopTime="0.00" timeLoss="97.28" rerouteNo="0" devices="tripinfo_w4-s1_0.16" vType="DEFAULT_VEHTYPE" speedFactor="0.98" vaporized=""/>
    <tripinfo id="w4-s1_0.20" depart="72.00" departLane="OrigionW4_0" departPos="5.10" departSpeed="0.00" departDelay="0.00" arrival="233.00" arrivalLane="DestinationS1_1" arrivalPos="373.48" arrivalSpeed="29.96" duration="161.00" routeLength="2089.17" waitingTime="58.00" waitingCount="2" stopTime="0.00" timeLoss="90.72" rerouteNo="0" devices="tripinfo_w4-s1_0.20" vType="DEFAULT_VEHTYPE" speedFactor="1.08" vaporized=""/>
    <tripinfo id="n2-s8_0.4" depart="24.00" departLane="OrigionN2_0" departPos="5.10" departSpeed="0.00" departDelay="0.00" arrival="233.00" arrivalLane="DestinationS8_0" arrivalPos="419.24" arrivalSpeed="21.55" duration="209.00" routeLength="3729.72" waitingTime="13.00" waitingCount="2" stopTime="0.00" timeLoss="55.62" rerouteNo="0" devices="tripinfo_n2-s8_0.4" vType="DEFAULT_VEHTYPE" speedFactor="1.01" vaporized=""/>
    <tripinfo id="w4-s1_0.15" depart="54.00" departLane="OrigionW4_0" departPos="5.10" departSpeed="0.00" departDelay="0.00" arrival="234.00" arrivalLane="DestinationS1_0" arrivalPos="373.48" arrivalSpeed="23.76" duration="180.00" routeLength="2089.17" waitingTime="73.00" waitingCount="2" stopTime="0.00" timeLoss="95.75" rerouteNo="0" devices="tripinfo_w4-s1_0.15" vType="DEFAULT_VEHTYPE" speedFactor="0.89" vaporized=""/>
    <tripinfo id="w4-s1_0.22" depart="79.00" departLane="OrigionW4_0" departPos="5.10" departSpeed="0.00" departDelay="-0.20" arrival="234.00" arrivalLane="DestinationS1_1" arrivalPos="373.48" arrivalSpeed="29.52" duration="155.00" routeLength="2089.17" waitingTime="48.00" waitingCount="2" stopTime="0.00" timeLoss="84.10" rerouteNo="0" devices="tripinfo_w4-s1_0.22" vType="DEFAULT_VEHTYPE" speedFactor="1.07" vaporized=""/>
    <tripinfo id="w4-s1_0.24" depart="86.00" departLane="OrigionW4_0" departPos="5.10" departSpeed="0.00" departDelay="-0.40" arrival="235.00" arrivalLane="DestinationS1_1" arrivalPos="373.48" arrivalSpeed="28.91" duration="149.00" routeLength="2089.17" waitingTime="45.00" waitingCount="1" stopTime="0.00" timeLoss="76.72" rerouteNo="0" devices="tripinfo_w4-s1_0.24" vType="DEFAULT_VEHTYPE" speedFactor="1.04" vaporized=""/>