<?xml version="1.0" encoding="UTF-8"?>

<!-- generated on Wed Jan  9 15:09:59 2019 by Eclipse SUMO Version v1_0_1+0999-ba34606b5d
<configuration xmlns:xsi="http://www.w3.org/2001/XMLSchema-instance" xsi:noNamespaceSchemaLocation="http://sumo.dlr.de/xsd/sumoConfiguration.xsd">

    <input>
        <net-file value="Chj_final.net.xml"/>
        <route-files value="Chj_Demand10.rou.xml"/>
        <additional-files value="loops.xml"/>
    </input>

    <output>
        <queue-output value="HTSCqueue10.xml"/>
        <summary-output value="HTSCsummary10.xml"/>
        <tripinfo-output value="HTSCtripinfo10.xml"/>
    </output>

    <time>
        <begin value="0"/>
        <end value="3600"/>
    </time>

    <report>
        <xml-validation value="never"/>
        <duration-log.disable value="true"/>
        <no-step-log value="true"/>
    </report>

    <traci_server>
        <remote-port value="40345"/>
    </traci_server>

    <random_number>
        <seed value="58"/>
    </random_number>

</configuration>
-->

<tripinfos xmlns:xsi="http://www.w3.org/2001/XMLSchema-instance" xsi:noNamespaceSchemaLocation="http://sumo.dlr.de/xsd/tripinfo_file.xsd">
    <tripinfo id="s1-w4_0.1" depart="3.00" departLane="OrigionS1_0" departPos="5.10" departSpeed="0.00" departDelay="-0.60" arrival="75.00" arrivalLane="DestinationW4_1" arrivalPos="242.47" arrivalSpeed="32.14" duration="72.00" routeLength="2089.17" waitingTime="0.00" waitingCount="0" stopTime="0.00" timeLoss="8.92" rerouteNo="0" devices="tripinfo_s1-w4_0.1" vType="DEFAULT_VEHTYPE" speedFactor="1.20" vaporized=""/>
    <tripinfo id="s1-w4_0.0" depart="0.00" departLane="OrigionS1_0" departPos="5.10" departSpeed="0.00" departDelay="0.00" arrival="83.00" arrivalLane="DestinationW4_0" arrivalPos="242.47" arrivalSpeed="27.21" duration="83.00" routeLength="2089.17" waitingTime="0.00" waitingCount="0" stopTime="0.00" timeLoss="7.58" rerouteNo="0" devices="tripinfo_s1-w4_0.0" vType="DEFAULT_VEHTYPE" speedFactor="1.00" vaporized=""/>
    <tripinfo id="w4-s1_0.0" depart="0.00" departLane="OrigionW4_0" departPos="5.10" departSpeed="0.00" departDelay="0.00" arrival="127.00" arrivalLane="DestinationS1_1" arrivalPos="373.48" arrivalSpeed="27.07" duration="127.00" routeLength="2089.17" waitingTime="22.00" waitingCount="2" stopTime="0.00" timeLoss="50.32" rerouteNo="0" devices="tripinfo_w4-s1_0.0" vType="DEFAULT_VEHTYPE" speedFactor="0.99" vaporized=""/>
    <tripinfo id="w4-s1_0.2" depart="7.00" departLane="OrigionW4_0" departPos="5.10" departSpeed="0.00" departDelay="-0.20" arrival="127.00" arrivalLane="DestinationS1_0" arrivalPos="373.48" arrivalSpeed="27.38" duration="120.00" routeLength="2089.17" waitingTime="20.00" waitingCount="1" stopTime="0.00" timeLoss="46.41" rerouteNo="0" devices="tripinfo_w4-s1_0.2" vType="DEFAULT_VEHTYPE" speedFactor="1.02" vaporized=""/>
    <tripinfo id="e5-e1_0.0" depart="0.00" departLane="OrigionE5_0" departPos="5.10" departSpeed="0.00" departDelay="0.00" arrival="130.00" arrivalLane="DestinationE1_0" arrivalPos="250.56" arrivalSpeed="22.28" duration="130.00" routeLength="2162.05" waitingTime="7.00" waitingCount="1" stopTime="0.00" timeLoss="26.78" rerouteNo="0" devices="tripinfo_e5-e1_0.0" vType="DEFAULT_VEHTYPE" speedFactor="1.05" vaporized=""/>
    <tripinfo id="s1-w4_0.3" depart="10.00" departLane="OrigionS1_0" departPos="5.10" departSpeed="0.00" departDelay="-0.80" arrival="131.00" arrivalLane="DestinationW4_0" arrivalPos="242.47" arrivalSpeed="28.78" duration="121.00" routeLength="2089.17" waitingTime="30.00" waitingCount="1" stopTime="0.00" timeLoss="49.79" rerouteNo="0" devices="tripinfo_s1-w4_0.3" vType="DEFAULT_VEHTYPE" speedFactor="1.06" vaporized=""/>
    <tripinfo id="w4-s1_0.4" depart="14.00" departLane="OrigionW4_0" departPos="5.10" departSpeed="0.00" departDelay="-0.40" arrival="131.00" arrivalLane="DestinationS1_1" arrivalPos="373.48" arrivalSpeed="26.18" duration="117.00" routeLength="2089.17" waitingTime="14.00" waitingCount="1" stopTime="0.00" timeLoss="38.18" rerouteNo="0" devices="tripinfo_w4-s1_0.4" vType="DEFAULT_VEHTYPE" speedFactor="0.95" vaporized=""/>
    <tripinfo id="w4-s1_0.1" depart="3.00" departLane="OrigionW4_0" departPos="5.10" departSpeed="0.00" departDelay="-0.60" arrival="131.00" arrivalLane="DestinationS1_0" arrivalPos="373.48" arrivalSpeed="24.42" duration="128.00" routeLength="2089.17" waitingTime="15.00" waitingCount="1" stopTime="0.00" timeLoss="42.53" rerouteNo="0" devices="tripinfo_w4-s1_0.1" vType="DEFAULT_VEHTYPE" speedFactor="0.88" vaporized=""/>
    <tripinfo id="e5-e1_0.1" depart="6.00" departLane="OrigionE5_0" departPos="5.10" departSpeed="0.00" departDelay="0.00" arrival="131.00" arrivalLane="DestinationE1_0" arrivalPos="250.56" arrivalSpeed="24.95" duration="125.00" routeLength="2162.05" waitingTime="7.00" waitingCount="1" stopTime="0.00" timeLoss="32.34" rerouteNo="0" devices="tripinfo_e5-e1_0.1" vType="DEFAULT_VEHTYPE" speedFactor="1.17" vaporized=""/>
    <tripinfo id="s1-w4_0.2" depart="7.00" departLane="OrigionS1_0" departPos="5.10" departSpeed="0.00" departDelay="-0.20" arrival="132.00" arrivalLane="DestinationW4_0" arrivalPos="242.47" arrivalSpeed="26.77" duration="125.00" routeLength="2089.17" waitingTime="31.00" waitingCount="1" stopTime="0.00" timeLoss="48.45" rerouteNo="0" devices="tripinfo_s1-w4_0.2" vType="DEFAULT_VEHTYPE" speedFactor="0.98" vaporized=""/>
    <tripinfo id="w4-s1_0.5" depart="18.00" departLane="OrigionW4_0" departPos="5.10" departSpeed="0.00" departDelay="0.00" arrival="133.00" arrivalLane="DestinationS1_1" arrivalPos="373.48" arrivalSpeed="28.45" duration="115.00" routeLength="2089.17" waitingTime="13.00" waitingCount="1" stopTime="0.00" timeLoss="44.98" rerouteNo="0" devices="tripinfo_w4-s1_0.5" vType="DEFAULT_VEHTYPE" speedFactor="1.08" vaporized=""/>
    <tripinfo id="w4-s1_0.7" depart="25.00" departLane="OrigionW4_0" departPos="5.10" departSpeed="0.00" departDelay="-0.20" arrival="134.00" arrivalLane="DestinationS1_1" arrivalPos="373.48" arrivalSpeed="28.30" duration="109.00" routeLength="2089.17" waitingTime="6.00" waitingCount="1" stopTime="0.00" timeLoss="41.78" rerouteNo="0" devices="tripinfo_w4-s1_0.7" vType="DEFAULT_VEHTYPE" speedFactor="1.12" vaporized=""/>
    <tripinfo id="w4-s1_0.3" depart="10.00" departLane="OrigionW4_0" departPos="5.10" departSpeed="0.00" departDelay="-0.80" arrival="135.00" arrivalLane="DestinationS1_0" arrivalPos="373.48" arrivalSpeed="21.91" duration="125.00" routeLength="2089.17" waitingTime="12.00" waitingCount="1" stopTime="0.00" timeLoss="29.74" rerouteNo="0" devices="tripinfo_w4-s1_0.3" vType="DEFAULT_VEHTYPE" speedFactor="0.80" vaporized=""/>
    <tripinfo id="s1-w4_0.4" depart="14.00" departLane="OrigionS1_0" departPos="5.10" departSpeed="0.00" departDelay="-0.40" arrival="136.00" arrivalLane="DestinationW4_1" arrivalPos="242.47" arrivalSpeed="24.54" duration="122.00" routeLength="2089.17" waitingTime="22.00" waitingCount="1" stopTime="0.00" timeLoss="39.95" rerouteNo="0" devices="tripinfo_s1-w4_0.4" vType="DEFAULT_VEHTYPE" speedFactor="0.93" vaporized=""/>
    <tripinfo id="s1-w4_0.5" depart="18.00" departLane="OrigionS1_0" departPos="5.10" departSpeed="0.00" departDelay="0.00" arrival="136.00" arrivalLane="DestinationW4_0" arrivalPos="242.47" arrivalSpeed="25.55" duration="118.00" routeLength="2089.17" waitingTime="19.00" waitingCount="1" stopTime="0.00" timeLoss="39.12" rerouteNo="0" devices="tripinfo_s1-w4_0.5" vType="DEFAULT_VEHTYPE" speedFactor="0.96" vaporized=""/>
    <tripinfo id="w4-s1_0.6" depart="21.00" departLane="OrigionW4_0" departPos="5.10" departSpeed="0.00" departDelay="-0.60" arrival="136.00" arrivalLane="DestinationS1_0" arrivalPos="373.48" arrivalSpeed="23.43" duration="115.00" routeLength="2089.17" waitingTime="8.00" waitingCount="1" stopTime="0.00" timeLoss="39.36" rerouteNo="0" devices="tripinfo_w4-s1_0.6" vType="DEFAULT_VEHTYPE" speedFactor="1.00" vaporized=""/>
    <tripinfo id="s1-w4_0.6" depart="21.00" departLane="OrigionS1_0" departPos="5.10" departSpeed="0.00" departDelay="-0.60" arrival="137.00" arrivalLane="DestinationW4_1" arrivalPos="242.47" arrivalSpeed="27.35" duration="116.00" routeLength="2089.17" waitingTime="19.00" waitingCount="1" stopTime="0.00" timeLoss="41.75" rerouteNo="0" devices="tripinfo_s1-w4_0.6" vType="DEFAULT_VEHTYPE" speedFactor="1.02" vaporized=""/>
    <tripinfo id="s1-w4_0.8" depart="28.00" departLane="OrigionS1_0" departPos="5.10" departSpeed="0.00" departDelay="-0.80" arrival="142.00" arrivalLane="DestinationW4_0" arrivalPos="242.47" arrivalSpeed="28.77" duration="114.00" routeLength="2089.17" waitingTime="25.00" waitingCount="1" stopTime="0.00" timeLoss="43.68" rerouteNo="0" devices="tripinfo_s1-w4_0.8" vType="DEFAULT_VEHTYPE" speedFactor="1.08" vaporized=""/>
    <tripinfo id="w4-s1_0.11" depart="39.00" departLane="OrigionW4_0" departPos="5.10" departSpeed="0.00" departDelay="-0.60" arrival="190.00" arrivalLane="DestinationS1_1" arrivalPos="373.48" arrivalSpeed="24.66" duration="151.00" routeLength="2089.17" waitingTime="40.00" waitingCount="2" stopTime="0.00" timeLoss="69.24" rerouteNo="0" devices="tripinfo_w4-s1_0.11" vType="DEFAULT_VEHTYPE" speedFactor="0.93" vaporized=""/>
    <tripinfo id="w4-s1_0.9" depart="32.00" departLane="OrigionW4_0" departPos="5.10" departSpeed="0.00" departDelay="-0.40" arrival="190.00" arrivalLane="DestinationS1_0" arrivalPos="373.48" arrivalSpeed="24.05" duration="158.00" routeLength="2089.17" waitingTime="46.00" waitingCount="2" stopTime="0.00" timeLoss="70.74" rerouteNo="0" devices="tripinfo_w4-s1_0.9" vType="DEFAULT_VEHTYPE" speedFactor="0.87" vaporized=""/>
    <tripinfo id="w4-s1_0.12" depart="43.00" departLane="OrigionW4_0" departPos="5.10" departSpeed="0.00" departDelay="-0.20" arrival="191.00" arrivalLane="DestinationS1_1" arrivalPos="373.48" arrivalSpeed="27.61" duration="148.00" routeLength="2089.17" waitingTime="38.00" waitingCount="2" stopTime="0.00" timeLoss="77.36" rerouteNo="0" devices="tripinfo_w4-s1_0.12" vType="DEFAULT_VEHTYPE" speedFactor="1.07" vaporized=""/>
    <tripinfo id="w4-s1_0.8" depart="28.00" departLane="OrigionW4_0" departPos="5.10" departSpeed="0.00" departDelay="-0.80" arrival="191.00" arrivalLane="DestinationS1_0" arrivalPos="373.48" arrivalSpeed="25.18" duration="163.00" routeLength="2089.17" waitingTime="55.00" waitingCount="2" stopTime="0.00" timeLoss="85.37" rerouteNo="0" devices="tripinfo_w4-s1_0.8" vType="DEFAULT_VEHTYPE" speedFactor="0.97" vaporized=""/>
    <tripinfo id="s1-w4_0.9" depart="32.00" departLane="OrigionS1_0" departPos="5.10" departSpeed="0.00" departDelay="-0.40" arrival="193.00" arrivalLane="DestinationW4_0" arrivalPos="242.47" arrivalSpeed="29.15" duration="161.00" routeLength="2089.17" waitingTime="61.00" waitingCount="2" stopTime="0.00" timeLoss="88.94" rerouteNo="0" devices="tripinfo_s1-w4_0.9" vType="DEFAULT_VEHTYPE" speedFactor="1.06" vaporized=""/>
    <tripinfo id="w4-s1_0.15" depart="54.00" departLane="OrigionW4_0" departPos="5.10" departSpeed="0.00" departDelay="0.00" arrival="193.00" arrivalLane="DestinationS1_1" arrivalPos="373.48" arrivalSpeed="29.44" duration="139.00" routeLength="2089.17" waitingTime="27.00" waitingCount="2" stopTime="0.00" timeLoss="72.66" rerouteNo="0" devices="tripinfo_w4-s1_0.15" vType="DEFAULT_VEHTYPE" speedFactor="1.15" vaporized=""/>
    <tripinfo id="w4-s1_0.10" depart="36.00" departLane="OrigionW4_0" departPos="5.10" departSpeed="0.00" departDelay="0.00" arrival="194.00" arrivalLane="DestinationS1_0" arrivalPos="373.48" arrivalSpeed="22.94" duration="158.00" routeLength="2089.17" waitingTime="38.00" waitingCount="2" stopTime="0.00" timeLoss="66.65" rerouteNo="0" devices="tripinfo_w4-s1_0.10" vType="DEFAULT_VEHTYPE" speedFactor="0.83" vaporized=""/>
    <tripinfo id="w4-s1_0.16" depart="57.00" departLane="OrigionW4_0" departPos="5.10" departSpeed="0.00" departDelay="-0.60" arrival="195.00" arrivalLane="DestinationS1_1" arrivalPos="373.48" arrivalSpeed="25.45" duration="138.00" routeLength="2089.17" waitingTime="22.00" waitingCount="2" stopTime="0.00" timeLoss="56.84" rerouteNo="0" devices="tripinfo_w4-s1_0.16" vType="DEFAULT_VEHTYPE" speedFactor="0.93" vaporized=""/>
    <tripinfo id="s1-w4_0.10" depart="36.00" departLane="OrigionS1_0" departPos="5.10" departSpeed="0.00" departDelay="0.00" arrival="196.00" arrivalLane="DestinationW4_1" arrivalPos="242.47" arrivalSpeed="26.22" duration="160.00" routeLength="2089.17" waitingTime="51.00" waitingCount="2" stopTime="0.00" timeLoss="80.91" rerouteNo="0" devices="tripinfo_s1-w4_0.10" vType="DEFAULT_VEHTYPE" speedFactor="0.96" vaporized=""/>
    <tripinfo id="w4-s1_0.14" depart="50.00" departLane="OrigionW4_0" departPos="5.10" departSpeed="0.00" departDelay="-0.40" arrival="196.00" arrivalLane="DestinationS1_0" arrivalPos="373.48" arrivalSpeed="23.92" duration="146.00" routeLength="2089.17" waitingTime="26.00" waitingCount="2" stopTime="0.00" timeLoss="58.01" rerouteNo="0" devices="tripinfo_w4-s1_0.14" vType="DEFAULT_VEHTYPE" speedFactor="0.86" vaporized=""/>
    <tripinfo id="s2-n7_0.0" depart="0.00" departLane="OrigionS2_0" departPos="5.10" departSpeed="0.00" departDelay="0.00" arrival="196.00" arrivalLane="DestinationN7_0" arrivalPos="1062.75" arrivalSpeed="33.45" duration="196.00" routeLength="4715.40" waitingTime="14.00" waitingCount="1" stopTime="0.00" timeLoss="35.33" rerouteNo="0" devices="tripinfo_s2-n7_0.0" vType="DEFAULT_VEHTYPE" speedFactor="1.24" vaporized=""/>
    <tripinfo id="s1-w4_0.12" depart="43.00" departLane="OrigionS1_0" departPos="5.10" departSpeed="0.00" departDelay="-0.20" arrival="197.00" arrivalLane="DestinationW4_1" arrivalPos="242.47" arrivalSpeed="27.85" duration="154.00" routeLength="2089.17" waitingTime="39.00" waitingCount="3" stopTime="0.00" timeLoss="83.90" rerouteNo="0" devices="tripinfo_s1-w4_0.12" vType="DEFAULT_VEHTYPE" speedFactor="1.07" vaporized=""/>
    <tripinfo id="s1-w4_0.7" depart="25.00" departLane="OrigionS1_0" departPos="5.10" departSpeed="0.00" departDelay="-0.20" arrival="197.00" arrivalLane="DestinationW4_0" arrivalPos="242.47" arrivalSpeed="22.31" duration="172.00" routeLength="2089.17" waitingTime="53.00" waitingCount="2" stopTime="0.00" timeLoss="81.46" rerouteNo="0" devices="tripinfo_s1-w4_0.7" vType="DEFAULT_VEHTYPE" speedFactor="0.83" vaporized=""/>
    <tripinfo id="w4-s1_0.18" depart="64.00" departLane="OrigionW4_0" departPos="5.10" departSpeed="0.00" departDelay="-0.80" arrival="197.00" arrivalLane="DestinationS1_1" arrivalPos="373.48" arrivalSpeed="26.12" duration="133.00" routeLength="2089.17" waitingTime="16.00" waitingCount="2" stopTime="0.00" timeLoss="52.33" rerouteNo="0" devices="tripinfo_w4-s1_0.18" vType="DEFAULT_VEHTYPE" speedFactor="0.94" vaporized=""/>
    <tripinfo id="w4-s1_0.13" depart="46.00" departLane="OrigionW4_0" departPos="5.10" departSpeed="0.00" departDelay="-0.80" arrival="197.00" arrivalLane="DestinationS1_0" arrivalPos="373.48" arrivalSpeed="24.81" duration="151.00" routeLength="2089.17" waitingTime="29.00" waitingCount="3" stopTime="0.00" timeLoss="67.75" rerouteNo="0" devices="tripinfo_w4-s1_0.13" vType="DEFAULT_VEHTYPE" speedFactor="0.91" vaporized=""/>
    <tripinfo id="s1-w4_0.11" depart="39.00" departLane="OrigionS1_0" departPos="5.10" departSpeed="0.00" departDelay="-0.60" arrival="198.00" arrivalLane="DestinationW4_0" arrivalPos="242.47" arrivalSpeed="24.09" duration="159.00" routeLength="2089.17" waitingTime="45.00" waitingCount="2" stopTime="0.00" timeLoss="78.33" rerouteNo="0" devices="tripinfo_s1-w4_0.11" vType="DEFAULT_VEHTYPE" speedFactor="0.93" vaporized=""/>
    <tripinfo id="w4-s1_0.17" depart="61.00" departLane="OrigionW4_0" departPos="5.10" departSpeed="0.00" departDelay="-0.20" arrival="198.00" arrivalLane="DestinationS1_1" arrivalPos="373.48" arrivalSpeed="26.85" duration="137.00" routeLength="2089.17" waitingTime="13.00" waitingCount="2" stopTime="0.00" timeLoss="60.08" rerouteNo="0" devices="tripinfo_w4-s1_0.17" vType="DEFAULT_VEHTYPE" speedFactor="0.98" vaporized=""/>
    <tripinfo id="s1-w4_0.13" depart="46.00" departLane="OrigionS1_0" departPos="5.10" departSpeed="0.00" departDelay="-0.80" arrival="199.00" arrivalLane="DestinationW4_1" arrivalPos="242.47" arrivalSpeed="26.57" duration="153.00" routeLength="2089.17" waitingTime="43.00" waitingCount="2" stopTime="0.00" timeLoss="76.56" rerouteNo="0" devices="tripinfo_s1-w4_0.13" vType="DEFAULT_VEHTYPE" speedFactor="0.99" vaporized=""/>
    <tripinfo id="w4-s1_0.19" depart="68.00" departLane="OrigionW4_0" departPos="5.10" departSpeed="0.00" departDelay="-0.40" arrival="199.00" arrivalLane="DestinationS1_0" arrivalPos="373.48" arrivalSpeed="23.06" duration="131.00" routeLength="2089.17" waitingTime="9.00" waitingCount="1" stopTime="0.00" timeLoss="57.66" rerouteNo="0" devices="tripinfo_w4-s1_0.19" vType="DEFAULT_VEHTYPE" speedFactor="1.03" vaporized=""/>
    <tripinfo id="s1-w4_0.16" depart="57.00" departLane="OrigionS1_0" departPos="5.10" departSpeed="0.00" departDelay="-0.60" arrival="200.00" arrivalLane="DestinationW4_1" arrivalPos="242.47" arrivalSpeed="27.74" duration="143.00" routeLength="2089.17" waitingTime="35.00" waitingCount="1" stopTime="0.00" timeLoss="70.27" rerouteNo="0" devices="tripinfo_s1-w4_0.16" vType="DEFAULT_VEHTYPE" speedFactor="1.04" vaporized=""/>
    <tripinfo id="s1-w4_0.15" depart="54.00" departLane="OrigionS1_0" departPos="5.10" departSpeed="0.00" departDelay="0.00" arrival="200.00" arrivalLane="DestinationW4_0" arrivalPos="242.47" arrivalSpeed="27.32" duration="146.00" routeLength="2089.17" waitingTime="32.00" waitingCount="1" stopTime="0.00" timeLoss="75.73" rerouteNo="0" devices="tripinfo_s1-w4_0.15" vType="DEFAULT_VEHTYPE" speedFactor="1.08" vaporized=""/>
    <tripinfo id="w4-s1_0.21" depart="75.00" departLane="OrigionW4_0" departPos="5.10" departSpeed="0.00" departDelay="-0.60" arrival="200.00" arrivalLane="DestinationS1_1" arrivalPos="373.48" arrivalSpeed="25.53" duration="125.00" routeLength="2089.17" waitingTime="8.00" waitingCount="1" stopTime="0.00" timeLoss="45.73" rerouteNo="0" devices="tripinfo_w4-s1_0.21" vType="DEFAULT_VEHTYPE" speedFactor="0.96" vaporized=""/>
    <tripinfo id="w4-s1_0.22" depart="79.00" departLane="OrigionW4_0" departPos="5.10" departSpeed="0.00" departDelay="-0.20" arrival="200.00" arrivalLane="DestinationS1_0" arrivalPos="373.48" arrivalSpeed="21.47" duration="121.00" routeLength="2089.17" waitingTime="9.00" waitingCount="1" stopTime="0.00" timeLoss="50.42" rerouteNo="0" devices="tripinfo_w4-s1_0.22" vType="DEFAULT_VEHTYPE" speedFactor="1.07" vaporized=""/>
    <tripinfo id="s1-w4_0.14" depart="50.00" departLane="OrigionS1_0" departPos="5.10" departSpeed="0.00" departDelay="-0.40" arrival="201.00" arrivalLane="DestinationW4_0" arrivalPos="242.47" arrivalSpeed="26.23" duration="151.00" routeLength="2089.17" waitingTime="36.00" waitingCount="2" stopTime="0.00" timeLoss="78.56" rerouteNo="0" devices="tripinfo_s1-w4_0.14" vType="DEFAULT_VEHTYPE" speedFactor="1.04" vaporized=""/>
    <tripinfo id="w4-s1_0.23" depart="82.00" departLane="OrigionW4_0" departPos="5.10" departSpeed="0.00" departDelay="-0.80" arrival="201.00" arrivalLane="DestinationS1_1" arrivalPos="373.48" arrivalSpeed="28.14" duration="119.00" routeLength="2089.17" waitingTime="3.00" waitingCount="2" stopTime="0.00" timeLoss="58.56" rerouteNo="0" devices="tripinfo_w4-s1_0.23" vType="DEFAULT_VEHTYPE" speedFactor="1.25" vaporized=""/>
    <tripinfo id="s1-w4_0.17" depart="61.00" departLane="OrigionS1_0" departPos="5.10" departSpeed="0.00" departDelay="-0.20" arrival="202.00" arrivalLane="DestinationW4_1" arrivalPos="242.47" arrivalSpeed="28.11" duration="141.00" routeLength="2089.17" waitingTime="33.00" waitingCount="1" stopTime="0.00" timeLoss="67.23" rerouteNo="0" devices="tripinfo_s1-w4_0.17" vType="DEFAULT_VEHTYPE" speedFactor="1.03" vaporized=""/>
    <tripinfo id="w4-s1_0.20" depart="72.00" departLane="OrigionW4_0" departPos="5.10" departSpeed="0.00" departDelay="0.00" arrival="202.00" arrivalLane="DestinationS1_0" arrivalPos="373.48" arrivalSpeed="23.89" duration="130.00" routeLength="2089.17" waitingTime="8.00" waitingCount="1" stopTime="0.00" timeLoss="44.01" rerouteNo="0" devices="tripinfo_w4-s1_0.20" vType="DEFAULT_VEHTYPE" speedFactor="0.88" vaporized=""/>
    <tripinfo id="s1-w4_0.19" depart="68.00" departLane="OrigionS1_0" departPos="5.10" departSpeed="0.00" departDelay="-0.40" arrival="203.00" arrivalLane="DestinationW4_1" arrivalPos="242.47" arrivalSpeed="26.89" duration="135.00" routeLength="2089.17" waitingTime="33.00" waitingCount="1" stopTime="0.00" timeLoss="57.67" rerouteNo="0" devices="tripinfo_s1-w4_0.19" vType="DEFAULT_VEHTYPE" speedFactor="0.98" vaporized=""/>
    <tripinfo id="s1-w4_0.21" depart="75.00" departLane="OrigionS1_0" departPos="5.10" departSpeed="0.00" departDelay="-0.60" arrival="205.00" arrivalLane="DestinationW4_1" arrivalPos="242.47" arrivalSpeed="29.76" duration="130.00" routeLength="2089.17" waitingTime="33.00" waitingCount="1" stopTime="0.00" timeLoss="64.78" rerouteNo="0" devices="tripinfo_s1-w4_0.21" vType="DEFAULT_VEHTYPE" speedFactor="1.17" vaporized=""/>
    <tripinfo id="s1-w4_0.22" depart="79.00" departLane="OrigionS1_0" departPos="5.10" departSpeed="0.00" departDelay="-0.20" arrival="206.00" arrivalLane="DestinationW4_1" arrivalPos="242.47" arrivalSpeed="27.93" duration="127.00" routeLength="2089.17" waitingTime="29.00" waitingCount="1" stopTime="0.00" timeLoss="54.35" rerouteNo="0" devices="tripinfo_s1-w4_0.22" vType="DEFAULT_VEHTYPE" speedFactor="1.04" vaporized=""/>
    <tripinfo id="s4-n5_0.0" depart="0.00" departLane="OrigionS4_0" departPos="5.10" departSpeed="0.00" departDelay="0.00" arrival="206.00" arrivalLane="DestinationN5_0" arrivalPos="178.17" arrivalSpeed="12.23" duration="206.00" routeLength="3209.41" waitingTime="17.00" waitingCount="1" stopTime="0.00" timeLoss="56.82" rerouteNo="0" devices="tripinfo_s4-n5_0.0" vType="DEFAULT_VEHTYPE" speedFactor="0.96" vaporized=""/>
    <tripinfo id="s1-w4_0.23" depart="82.00" departLane="OrigionS1_0" departPos="5.10" departSpeed="0.00" departDelay="-0.80" arrival="207.00" arrivalLane="DestinationW4_1" arrivalPos="242.47" arrivalSpeed="27.26" duration="125.00" routeLength="2089.17" waitingTime="23.00" waitingCount="1" stopTime="0.00" timeLoss="50.92" rerouteNo="0" devices="tripinfo_s1-w4_0.23" vType="DEFAULT_VEHTYPE" speedFactor="1.02" vaporized=""/>
    <tripinfo id="s1-w4_0.18" depart="64.00" departLane="OrigionS1_0" departPos="5.10" departSpeed="0.00" departDelay="-0.80" arrival="207.00" arrivalLane="DestinationW4_0" arrivalPos="242.47" arrivalSpeed="21.44" duration="143.00" routeLength="2089.17" waitingTime="27.00" waitingCount="1" stopTime="0.00" timeLoss="46.24" rerouteNo="0" devices="tripinfo_s1-w4_0.18" vType="DEFAULT_VEHTYPE" speedFactor="0.78" vaporized=""/>
    <tripinfo id="s1-w4_0.20" depart="72.00" departLane="OrigionS1_0" departPos="5.10" departSpeed="0.00" departDelay="0.00" arrival="209.00" arrivalLane="DestinationW4_0" arrivalPos="242.47" arrivalSpeed="23.66" duration="137.00" routeLength="2089.17" waitingTime="26.00" waitingCount="1" stopTime="0.00" timeLoss="60.20" rerouteNo="0" devices="tripinfo_s1-w4_0.20" vType="DEFAULT_VEHTYPE" speedFactor="0.99" vaporized=""/>
    <tripinfo id="s4-n5_0.1" depart="3.00" departLane="OrigionS4_0" departPos="5.10" departSpeed="0.00" departDelay="-0.60" arrival="209.00" arrivalLane="DestinationN5_0" arrivalPos="178.17" arrivalSpeed="13.24" duration="206.00" routeLength="3209.41" waitingTime="17.00" waitingCount="1" stopTime="0.00" timeLoss="65.95" rerouteNo="0" devices="tripinfo_s4-n5_0.1" vType="DEFAULT_VEHTYPE" speedFactor="1.02" vaporized=""/>
    <tripinfo id="s6-w5_0.0" depart="0.00" departLane="OrigionS6_0" departPos="5.10" departSpeed="0.00" departDelay="0.00" arrival="212.00" arrivalLane="DestinationW5_0" arrivalPos="259.12" arrivalSpeed="14.51" duration="212.00" routeLength="3323.55" waitingTime="49.00" waitingCount="2" stopTime="0.00" timeLoss="89.58" rerouteNo="0" devices="tripinfo_s6-w5_0.0" vType="DEFAULT_VEHTYPE" speedFactor="1.06" vaporized=""/>
    <tripinfo id="n2-s8_0.0" depart="0.00" departLane="OrigionN2_0" departPos="5.10" departSpeed="0.00" departDelay="0.00" arrival="217.00" arrivalLane="DestinationS8_0" arrivalPos="419.24" arrivalSpeed="21.91" duration="217.00" routeLength="3729.72" waitingTime="24.00" waitingCount="2" stopTime="0.00" timeLoss="64.67" rerouteNo="0" devices="tripinfo_n2-s8_0.0" vType="DEFAULT_VEHTYPE" speedFactor="1.02" vaporized=""/>
    <tripinfo id="n2-s8_0.1" depart="6.00" departLane="OrigionN2_0" departPos="5.10" departSpeed="0.00" departDelay="0.00" arrival="220.00" arrivalLane="DestinationS8_0" arrivalPos="419.24" arrivalSpeed="21.27" duration="214.00" routeLength="3729.72" waitingTime="19.00" waitingCount="2" stopTime="0.00" timeLoss="56.17" rerouteNo="0" devices="tripinfo_n2-s8_0.1" vType="DEFAULT_VEHTYPE" speedFactor="0.98" vaporized=""/>
    <tripinfo id="n2-s8_0.2" depart="12.00" departLane="OrigionN2_0" departPos="5.10" departSpeed="0.00" departDelay="0.00" arrival="221.00" arrivalLane="DestinationS8_0" arrivalPos="419.24" arrivalSpeed="23.66" duration="209.00" routeLength="3729.72" waitingTime="17.00" waitingCount="2" stopTime="0.00" timeLoss="76.34" rerouteNo="0" devices="tripinfo_n2-s8_0.2" vType="DEFAULT_VEHTYPE" speedFactor="1.17" vaporized=""/>
    <tripinfo id="n2-s8_0.3" depart="18.00" departLane="OrigionN2_0" departPos="5.10" departSpeed="0.00" departDelay="0.00" arrival="223.00" arrivalLane="DestinationS8_0" arrivalPos="419.24" arrivalSpeed="22.74" duration="205.00" routeLength="3729.72" waitingTime="13.00" waitingCount="1" stopTime="0.00" timeLoss="58.74" rerouteNo="0" devices="tripinfo_n2-s8_0.3" vType="DEFAULT_VEHTYPE" speedFactor="1.06" vaporized=""/>
    <tripinfo id="n2-s8_0.4" depart="24.00" departLane="OrigionN2_0" departPos="5.10" departSpeed="0.00" departDelay="0.00" arrival="224.00" arrivalLane="DestinationS8_0" arrivalPos="419.24" arrivalSpeed="20.65" duration="200.00" routeLength="3729.72" waitingTime="13.00" waitingCount="1" stopTime="0.00" timeLoss="43.45" rerouteNo="0" devices="tripinfo_n2-s8_0.4" vType="DEFAULT_VEHTYPE" speedFactor="0.99" vaporized=""/>
    <tripinfo id="e5-e1_0.2" depart="12.00" departLane="OrigionE5_0" departPos="5.10" departSpeed="0.00" departDelay="0.00" arrival="228.00" arrivalLane="DestinationE1_0" arrivalPos="250.56" arrivalSpeed="19.83" duration="216.00" routeLength="2162.05" waitingTime="65.00" waitingCount="3" stopTime="0.00" timeLoss="95.72" rerouteNo="0" devices="tripinfo_e5-e1_0.2" vType="DEFAULT_VEHTYPE" speedFactor="0.90" vaporized=""/>
    <tripinfo id="e5-e1_0.3" depart="18.00" departLane="OrigionE5_0" departPos="5.10" departSpeed="0.00" departDelay="0.00" arrival="230.00" arrivalLane="DestinationE1_0" arrivalPos="250.56" arrivalSpeed="22.83" duration="212.00" routeLength="2162.05" waitingTime="65.00" waitingCount="3" stopTime="0.00" timeLoss="110.32" rerouteNo="0" devices="tripinfo_e5-e1_0.3" vType="DEFAULT_VEHTYPE" speedFactor="1.07" vaporized=""/>
    <tripinfo id="e5-e1_0.4" depart="24.00" departLane="OrigionE5_0" departPos="5.10" departSpeed="0.00" departDelay="0.00" arrival="233.00" arrivalLane="DestinationE1_0" arrivalPos="250.56" arrivalSpeed="16.39" duration="209.00" routeLength="2162.05" waitingTime="36.00" waitingCount="3" stopTime="0.00" timeLoss="69.20" rerouteNo="0" devices="tripinfo_e5-e1_0.4" vType="DEFAULT_VEHTYPE" speedFactor="0.77" vaporized=""/>
    <tripinfo id="n4-w2_0.1" depart="3.00" departLane="OrigionN4_0" departPos="5.10" departSpeed="0.00" departDelay="-0.60" arrival="234.00" arrivalLane="DestinationW2_0" arrivalPos="782.62" arrivalSpeed="23.12" duration="231.00" routeLength="3590.24" waitingTime="48.00" waitingCount="2" stopTime="0.00" timeLoss="82.96" rerouteNo="0" devices="tripinfo_n4-w2_0.1" vType="DEFAULT_VEHTYPE" speedFactor="1.05" vaporized=""/>
    <tripinfo id="e5-e1_0.5" depart="30.00" departLane="OrigionE5_0" departPos="5.10" departSpeed="0.00" departDelay="0.00" arrival="235.00" arrivalLane="DestinationE1_0" arrivalPos="250.56" arrivalSpeed="19.96" duration="205.00" routeLength="2162.05" waitingTime="33.00" waitingCount="3" stopTime="0.00" timeLoss="92.03" rerouteNo="0" devices="tripinfo_e5-e1_0.5" vType="DEFAULT_VEHTYPE" speedFactor="0.96" vaporized=""/>
    <tripinfo id="e5-e1_0.6" depart="36.00" departLane="OrigionE5_0" departPos="5.10" departSpeed="0.00" departDelay="0.00" arrival="236.00" arrivalLane="DestinationE1_0" arrivalPos="250.56" arrivalSpeed="20.54" duration="200.00" routeLength="2162.05" waitingTime="34.00" waitingCount="3" stopTime="0.00" timeLoss="101.31" rerouteNo="0" devices="tripinfo_e5-e1_0.6" vType="DEFAULT_VEHTYPE" speedFactor="1.09" vaporized=""/>
    <tripinfo id="w7-s2_0.0" depart="0.00" departLane="OrigionW7_0" departPos="5.10" departSpeed="0.00" departDelay="0.00" arrival="238.00" arrivalLane="DestinationS2_0" arrivalPos="805.81" arrivalSpeed="15.30" duration="238.00" routeLength="3111.60" waitingTime="23.00" waitingCount="2" stopTime="0.00" timeLoss="58.48" rerouteNo="0" devices="tripinfo_w7-s2_0.0" vType="DEFAULT_VEHTYPE" speedFactor="1.13" vaporized=""/>
    <tripinfo id="e5-e1_0.7" depart="42.00" departLane="OrigionE5_0" departPos="5.10" departSpeed="0.00" departDelay="0.00" arrival="238.00" arrivalLane="DestinationE1_0" arrivalPos="250.56" arrivalSpeed="21.63" duration="196.00" routeLength="2162.05" waitingTime="30.00" waitingCount="2" stopTime="0.00" timeLoss="84.95" rerouteNo="0" devices="tripinfo_e5-e1_0.7" vType="DEFAULT_VEHTYPE" speedFactor="0.98" vaporized=""/>
    <tripinfo id="e5-e1_0.8" depart="48.00" departLane="OrigionE5_0" departPos="5.10" departSpeed="0.00" departDelay="0.00" arrival="239.00" arrivalLane="DestinationE1_0" arrivalPos="250.56" arrivalSpeed="21.25" duration="191.00" routeLength="2162.05" waitingTime="28.00" waitingCount="2" stopTime="0.00" timeLoss="89.91" rerouteNo="0" devices="tripinfo_e5-e1_0.8" vType="DEFAULT_VEHTYPE" speedFactor="1.07" vaporized=""/>