<?xml version="1.0" encoding="UTF-8"?>

<!-- generated on Wed Jan  9 15:08:25 2019 by Eclipse SUMO Version v1_0_1+0999-ba34606b5d
<configuration xmlns:xsi="http://www.w3.org/2001/XMLSchema-instance" xsi:noNamespaceSchemaLocation="http://sumo.dlr.de/xsd/sumoConfiguration.xsd">

    <input>
        <net-file value="Chj_final.net.xml"/>
        <route-files value="Chj_Demand7.rou.xml"/>
        <additional-files value="loops.xml"/>
    </input>

    <output>
        <queue-output value="HTSCqueue7.xml"/>
        <summary-output value="HTSCsummary7.xml"/>
        <tripinfo-output value="HTSCtripinfo7.xml"/>
    </output>

    <time>
        <begin value="0"/>
        <end value="3600"/>
    </time>

    <report>
        <xml-validation value="never"/>
        <duration-log.disable value="true"/>
        <no-step-log value="true"/>
    </report>

    <traci_server>
        <remote-port value="51405"/>
    </traci_server>

    <random_number>
        <seed value="87"/>
    </random_number>

</configuration>
-->

<tripinfos xmlns:xsi="http://www.w3.org/2001/XMLSchema-instance" xsi:noNamespaceSchemaLocation="http://sumo.dlr.de/xsd/tripinfo_file.xsd">
    <tripinfo id="w4-s1_0.2" depart="10.00" departLane="OrigionW4_0" departPos="5.10" departSpeed="0.00" departDelay="-0.28" arrival="126.00" arrivalLane="DestinationS1_0" arrivalPos="373.48" arrivalSpeed="28.02" duration="116.00" routeLength="2089.17" waitingTime="18.00" waitingCount="1" stopTime="0.00" timeLoss="41.55" rerouteNo="0" devices="tripinfo_w4-s1_0.2" vType="DEFAULT_VEHTYPE" speedFactor="1.02" vaporized=""/>
    <tripinfo id="w4-s1_0.1" depart="5.00" departLane="OrigionW4_0" departPos="5.10" departSpeed="0.00" departDelay="-0.14" arrival="128.00" arrivalLane="DestinationS1_0" arrivalPos="373.48" arrivalSpeed="26.63" duration="123.00" routeLength="2089.17" waitingTime="18.00" waitingCount="1" stopTime="0.00" timeLoss="43.81" rerouteNo="0" devices="tripinfo_w4-s1_0.1" vType="DEFAULT_VEHTYPE" speedFactor="0.96" vaporized=""/>
    <tripinfo id="w4-s1_0.3" depart="15.00" departLane="OrigionW4_0" departPos="5.10" departSpeed="0.00" departDelay="-0.43" arrival="129.00" arrivalLane="DestinationS1_1" arrivalPos="373.48" arrivalSpeed="27.66" duration="114.00" routeLength="2089.17" waitingTime="17.00" waitingCount="1" stopTime="0.00" timeLoss="39.58" rerouteNo="0" devices="tripinfo_w4-s1_0.3" vType="DEFAULT_VEHTYPE" speedFactor="1.02" vaporized=""/>
    <tripinfo id="w4-s1_0.0" depart="0.00" departLane="OrigionW4_0" departPos="5.10" departSpeed="0.00" departDelay="0.00" arrival="130.00" arrivalLane="DestinationS1_0" arrivalPos="373.48" arrivalSpeed="27.10" duration="130.00" routeLength="2089.17" waitingTime="20.00" waitingCount="2" stopTime="0.00" timeLoss="56.87" rerouteNo="0" devices="tripinfo_w4-s1_0.0" vType="DEFAULT_VEHTYPE" speedFactor="1.04" vaporized=""/>
    <tripinfo id="w4-s1_0.4" depart="20.00" departLane="OrigionW4_0" departPos="5.10" departSpeed="0.00" departDelay="-0.57" arrival="131.00" arrivalLane="DestinationS1_1" arrivalPos="373.48" arrivalSpeed="27.03" duration="111.00" routeLength="2089.17" waitingTime="15.00" waitingCount="1" stopTime="0.00" timeLoss="34.09" rerouteNo="0" devices="tripinfo_w4-s1_0.4" vType="DEFAULT_VEHTYPE" speedFactor="0.99" vaporized=""/>
    <tripinfo id="w4-s1_0.5" depart="25.00" departLane="OrigionW4_0" departPos="5.10" departSpeed="0.00" departDelay="-0.71" arrival="131.00" arrivalLane="DestinationS1_0" arrivalPos="373.48" arrivalSpeed="26.40" duration="106.00" routeLength="2089.17" waitingTime="8.00" waitingCount="2" stopTime="0.00" timeLoss="30.04" rerouteNo="0" devices="tripinfo_w4-s1_0.5" vType="DEFAULT_VEHTYPE" speedFactor="0.99" vaporized=""/>
    <tripinfo id="s1-w4_0.1" depart="5.00" departLane="OrigionS1_0" departPos="5.10" departSpeed="0.00" departDelay="-0.14" arrival="132.00" arrivalLane="DestinationW4_1" arrivalPos="242.47" arrivalSpeed="27.13" duration="127.00" routeLength="2089.17" waitingTime="32.00" waitingCount="1" stopTime="0.00" timeLoss="52.89" rerouteNo="0" devices="tripinfo_s1-w4_0.1" vType="DEFAULT_VEHTYPE" speedFactor="1.02" vaporized=""/>
    <tripinfo id="s1-w4_0.0" depart="0.00" departLane="OrigionS1_0" departPos="5.10" departSpeed="0.00" departDelay="0.00" arrival="133.00" arrivalLane="DestinationW4_0" arrivalPos="242.47" arrivalSpeed="26.05" duration="133.00" routeLength="2089.17" waitingTime="36.00" waitingCount="1" stopTime="0.00" timeLoss="52.31" rerouteNo="0" devices="tripinfo_s1-w4_0.0" vType="DEFAULT_VEHTYPE" speedFactor="0.94" vaporized=""/>
    <tripinfo id="s1-w4_0.3" depart="15.00" departLane="OrigionS1_0" departPos="5.10" departSpeed="0.00" departDelay="-0.43" arrival="134.00" arrivalLane="DestinationW4_1" arrivalPos="242.47" arrivalSpeed="28.46" duration="119.00" routeLength="2089.17" waitingTime="25.00" waitingCount="1" stopTime="0.00" timeLoss="46.49" rerouteNo="0" devices="tripinfo_s1-w4_0.3" vType="DEFAULT_VEHTYPE" speedFactor="1.05" vaporized=""/>
    <tripinfo id="s1-w4_0.2" depart="10.00" departLane="OrigionS1_0" departPos="5.10" departSpeed="0.00" departDelay="-0.28" arrival="134.00" arrivalLane="DestinationW4_0" arrivalPos="242.47" arrivalSpeed="25.89" duration="124.00" routeLength="2089.17" waitingTime="27.00" waitingCount="1" stopTime="0.00" timeLoss="46.44" rerouteNo="0" devices="tripinfo_s1-w4_0.2" vType="DEFAULT_VEHTYPE" speedFactor="0.97" vaporized=""/>
    <tripinfo id="s1-w4_0.4" depart="20.00" departLane="OrigionS1_0" departPos="5.10" departSpeed="0.00" departDelay="-0.57" arrival="135.00" arrivalLane="DestinationW4_1" arrivalPos="242.47" arrivalSpeed="28.56" duration="115.00" routeLength="2089.17" waitingTime="21.00" waitingCount="1" stopTime="0.00" timeLoss="43.46" rerouteNo="0" devices="tripinfo_s1-w4_0.4" vType="DEFAULT_VEHTYPE" speedFactor="1.06" vaporized=""/>
    <tripinfo id="s1-w4_0.5" depart="25.00" departLane="OrigionS1_0" departPos="5.10" departSpeed="0.00" departDelay="-0.71" arrival="136.00" arrivalLane="DestinationW4_0" arrivalPos="242.47" arrivalSpeed="28.58" duration="111.00" routeLength="2089.17" waitingTime="13.00" waitingCount="1" stopTime="0.00" timeLoss="38.18" rerouteNo="0" devices="tripinfo_s1-w4_0.5" vType="DEFAULT_VEHTYPE" speedFactor="1.04" vaporized=""/>
    <tripinfo id="s1-w4_0.7" depart="35.00" departLane="OrigionS1_0" departPos="5.10" departSpeed="0.00" departDelay="-0.99" arrival="147.00" arrivalLane="DestinationW4_0" arrivalPos="242.47" arrivalSpeed="25.41" duration="112.00" routeLength="2089.17" waitingTime="14.00" waitingCount="1" stopTime="0.00" timeLoss="32.17" rerouteNo="0" devices="tripinfo_s1-w4_0.7" vType="DEFAULT_VEHTYPE" speedFactor="0.95" vaporized=""/>
    <tripinfo id="e5-e1_0.0" depart="0.00" departLane="OrigionE5_0" departPos="5.10" departSpeed="0.00" departDelay="0.00" arrival="168.00" arrivalLane="DestinationE1_0" arrivalPos="250.56" arrivalSpeed="19.58" duration="168.00" routeLength="2162.05" waitingTime="27.00" waitingCount="1" stopTime="0.00" timeLoss="51.31" rerouteNo="0" devices="tripinfo_e5-e1_0.0" vType="DEFAULT_VEHTYPE" speedFactor="0.93" vaporized=""/>
    <tripinfo id="w4-s1_0.7" depart="35.00" departLane="OrigionW4_0" departPos="5.10" departSpeed="0.00" departDelay="-0.99" arrival="189.00" arrivalLane="DestinationS1_1" arrivalPos="373.48" arrivalSpeed="25.18" duration="154.00" routeLength="2089.17" waitingTime="42.00" waitingCount="2" stopTime="0.00" timeLoss="71.13" rerouteNo="0" devices="tripinfo_w4-s1_0.7" vType="DEFAULT_VEHTYPE" speedFactor="0.91" vaporized=""/>
    <tripinfo id="w4-s1_0.6" depart="30.00" departLane="OrigionW4_0" departPos="5.10" departSpeed="0.00" departDelay="-0.85" arrival="189.00" arrivalLane="DestinationS1_0" arrivalPos="373.48" arrivalSpeed="25.23" duration="159.00" routeLength="2089.17" waitingTime="48.00" waitingCount="2" stopTime="0.00" timeLoss="76.35" rerouteNo="0" devices="tripinfo_w4-s1_0.6" vType="DEFAULT_VEHTYPE" speedFactor="0.91" vaporized=""/>
    <tripinfo id="w4-s1_0.8" depart="41.00" departLane="OrigionW4_0" departPos="5.10" departSpeed="0.00" departDelay="-0.14" arrival="190.00" arrivalLane="DestinationS1_1" arrivalPos="373.48" arrivalSpeed="25.06" duration="149.00" routeLength="2089.17" waitingTime="40.00" waitingCount="2" stopTime="0.00" timeLoss="79.87" rerouteNo="0" devices="tripinfo_w4-s1_0.8" vType="DEFAULT_VEHTYPE" speedFactor="1.09" vaporized=""/>
    <tripinfo id="w4-s1_0.10" depart="51.00" departLane="OrigionW4_0" departPos="5.10" departSpeed="0.00" departDelay="-0.42" arrival="191.00" arrivalLane="DestinationS1_0" arrivalPos="373.48" arrivalSpeed="26.15" duration="140.00" routeLength="2089.17" waitingTime="31.00" waitingCount="2" stopTime="0.00" timeLoss="69.06" rerouteNo="0" devices="tripinfo_w4-s1_0.10" vType="DEFAULT_VEHTYPE" speedFactor="1.07" vaporized=""/>
    <tripinfo id="w4-s1_0.11" depart="56.00" departLane="OrigionW4_0" departPos="5.10" departSpeed="0.00" departDelay="-0.56" arrival="192.00" arrivalLane="DestinationS1_1" arrivalPos="373.48" arrivalSpeed="24.93" duration="136.00" routeLength="2089.17" waitingTime="23.00" waitingCount="2" stopTime="0.00" timeLoss="55.01" rerouteNo="0" devices="tripinfo_w4-s1_0.11" vType="DEFAULT_VEHTYPE" speedFactor="0.93" vaporized=""/>
    <tripinfo id="s1-w4_0.8" depart="41.00" departLane="OrigionS1_0" departPos="5.10" departSpeed="0.00" departDelay="-0.14" arrival="193.00" arrivalLane="DestinationW4_1" arrivalPos="242.47" arrivalSpeed="26.53" duration="152.00" routeLength="2089.17" waitingTime="47.00" waitingCount="2" stopTime="0.00" timeLoss="74.58" rerouteNo="0" devices="tripinfo_s1-w4_0.8" vType="DEFAULT_VEHTYPE" speedFactor="0.97" vaporized=""/>
    <tripinfo id="w4-s1_0.9" depart="46.00" departLane="OrigionW4_0" departPos="5.10" departSpeed="0.00" departDelay="-0.28" arrival="193.00" arrivalLane="DestinationS1_0" arrivalPos="373.48" arrivalSpeed="27.32" duration="147.00" routeLength="2089.17" waitingTime="34.00" waitingCount="2" stopTime="0.00" timeLoss="77.05" rerouteNo="0" devices="tripinfo_w4-s1_0.9" vType="DEFAULT_VEHTYPE" speedFactor="1.09" vaporized=""/>
    <tripinfo id="w4-s1_0.13" depart="66.00" departLane="OrigionW4_0" departPos="5.10" departSpeed="0.00" departDelay="-0.85" arrival="194.00" arrivalLane="DestinationS1_1" arrivalPos="373.48" arrivalSpeed="27.86" duration="128.00" routeLength="2089.17" waitingTime="17.00" waitingCount="2" stopTime="0.00" timeLoss="55.17" rerouteNo="0" devices="tripinfo_w4-s1_0.13" vType="DEFAULT_VEHTYPE" speedFactor="1.04" vaporized=""/>
    <tripinfo id="w4-s1_0.12" depart="61.00" departLane="OrigionW4_0" departPos="5.10" departSpeed="0.00" departDelay="-0.70" arrival="194.00" arrivalLane="DestinationS1_0" arrivalPos="373.48" arrivalSpeed="26.60" duration="133.00" routeLength="2089.17" waitingTime="21.00" waitingCount="2" stopTime="0.00" timeLoss="56.73" rerouteNo="0" devices="tripinfo_w4-s1_0.12" vType="DEFAULT_VEHTYPE" speedFactor="0.99" vaporized=""/>
    <tripinfo id="s1-w4_0.6" depart="30.00" departLane="OrigionS1_0" departPos="5.10" departSpeed="0.00" departDelay="-0.85" arrival="195.00" arrivalLane="DestinationW4_0" arrivalPos="242.47" arrivalSpeed="24.04" duration="165.00" routeLength="2089.17" waitingTime="54.00" waitingCount="2" stopTime="0.00" timeLoss="78.91" rerouteNo="0" devices="tripinfo_s1-w4_0.6" vType="DEFAULT_VEHTYPE" speedFactor="0.88" vaporized=""/>
    <tripinfo id="s1-w4_0.10" depart="51.00" departLane="OrigionS1_0" departPos="5.10" departSpeed="0.00" departDelay="-0.42" arrival="195.00" arrivalLane="DestinationW4_1" arrivalPos="242.47" arrivalSpeed="27.20" duration="144.00" routeLength="2089.17" waitingTime="37.00" waitingCount="2" stopTime="0.00" timeLoss="66.86" rerouteNo="0" devices="tripinfo_s1-w4_0.10" vType="DEFAULT_VEHTYPE" speedFactor="0.98" vaporized=""/>
    <tripinfo id="w4-s1_0.14" depart="71.00" departLane="OrigionW4_0" departPos="5.10" departSpeed="0.00" departDelay="-0.99" arrival="195.00" arrivalLane="DestinationS1_1" arrivalPos="373.48" arrivalSpeed="29.74" duration="124.00" routeLength="2089.17" waitingTime="12.00" waitingCount="1" stopTime="0.00" timeLoss="56.45" rerouteNo="0" devices="tripinfo_w4-s1_0.14" vType="DEFAULT_VEHTYPE" speedFactor="1.12" vaporized=""/>
    <tripinfo id="s1-w4_0.9" depart="46.00" departLane="OrigionS1_0" departPos="5.10" departSpeed="0.00" departDelay="-0.28" arrival="196.00" arrivalLane="DestinationW4_0" arrivalPos="242.47" arrivalSpeed="25.73" duration="150.00" routeLength="2089.17" waitingTime="38.00" waitingCount="2" stopTime="0.00" timeLoss="78.29" rerouteNo="0" devices="tripinfo_s1-w4_0.9" vType="DEFAULT_VEHTYPE" speedFactor="1.05" vaporized=""/>
    <tripinfo id="s1-w4_0.11" depart="56.00" departLane="OrigionS1_0" departPos="5.10" departSpeed="0.00" departDelay="-0.56" arrival="196.00" arrivalLane="DestinationW4_1" arrivalPos="242.47" arrivalSpeed="29.48" duration="140.00" routeLength="2089.17" waitingTime="35.00" waitingCount="1" stopTime="0.00" timeLoss="69.73" rerouteNo="0" devices="tripinfo_s1-w4_0.11" vType="DEFAULT_VEHTYPE" speedFactor="1.07" vaporized=""/>
    <tripinfo id="w4-s1_0.15" depart="77.00" departLane="OrigionW4_0" departPos="5.10" departSpeed="0.00" departDelay="-0.13" arrival="196.00" arrivalLane="DestinationS1_0" arrivalPos="373.48" arrivalSpeed="25.04" duration="119.00" routeLength="2089.17" waitingTime="10.00" waitingCount="1" stopTime="0.00" timeLoss="36.36" rerouteNo="0" devices="tripinfo_w4-s1_0.15" vType="DEFAULT_VEHTYPE" speedFactor="0.91" vaporized=""/>
    <tripinfo id="w4-s1_0.16" depart="82.00" departLane="OrigionW4_0" departPos="5.10" departSpeed="0.00" departDelay="-0.27" arrival="197.00" arrivalLane="DestinationS1_1" arrivalPos="373.48" arrivalSpeed="32.15" duration="115.00" routeLength="2089.17" waitingTime="11.00" waitingCount="1" stopTime="0.00" timeLoss="50.36" rerouteNo="0" devices="tripinfo_w4-s1_0.16" vType="DEFAULT_VEHTYPE" speedFactor="1.18" vaporized=""/>
    <tripinfo id="s1-w4_0.12" depart="61.00" departLane="OrigionS1_0" departPos="5.10" departSpeed="0.00" departDelay="-0.70" arrival="198.00" arrivalLane="DestinationW4_0" arrivalPos="242.47" arrivalSpeed="26.26" duration="137.00" routeLength="2089.17" waitingTime="32.00" waitingCount="1" stopTime="0.00" timeLoss="59.70" rerouteNo="0" devices="tripinfo_s1-w4_0.12" vType="DEFAULT_VEHTYPE" speedFactor="0.98" vaporized=""/>
    <tripinfo id="s1-w4_0.13" depart="66.00" departLane="OrigionS1_0" departPos="5.10" departSpeed="0.00" departDelay="-0.85" arrival="198.00" arrivalLane="DestinationW4_1" arrivalPos="242.47" arrivalSpeed="27.71" duration="132.00" routeLength="2089.17" waitingTime="34.00" waitingCount="1" stopTime="0.00" timeLoss="57.90" rerouteNo="0" devices="tripinfo_s1-w4_0.13" vType="DEFAULT_VEHTYPE" speedFactor="1.02" vaporized=""/>
    <tripinfo id="w4-s1_0.17" depart="87.00" departLane="OrigionW4_0" departPos="5.10" departSpeed="0.00" departDelay="-0.41" arrival="198.00" arrivalLane="DestinationS1_0" arrivalPos="373.48" arrivalSpeed="29.04" duration="111.00" routeLength="2089.17" waitingTime="7.00" waitingCount="1" stopTime="0.00" timeLoss="40.74" rerouteNo="0" devices="tripinfo_w4-s1_0.17" vType="DEFAULT_VEHTYPE" speedFactor="1.08" vaporized=""/>
    <tripinfo id="s1-w4_0.15" depart="77.00" departLane="OrigionS1_0" departPos="5.10" departSpeed="0.00" departDelay="-0.13" arrival="199.00" arrivalLane="DestinationW4_1" arrivalPos="242.47" arrivalSpeed="28.20" duration="122.00" routeLength="2089.17" waitingTime="28.00" waitingCount="1" stopTime="0.00" timeLoss="49.60" rerouteNo="0" devices="tripinfo_s1-w4_0.15" vType="DEFAULT_VEHTYPE" speedFactor="1.04" vaporized=""/>
    <tripinfo id="s1-w4_0.14" depart="71.00" departLane="OrigionS1_0" departPos="5.10" departSpeed="0.00" departDelay="-0.99" arrival="200.00" arrivalLane="DestinationW4_0" arrivalPos="242.47" arrivalSpeed="25.53" duration="129.00" routeLength="2089.17" waitingTime="28.00" waitingCount="2" stopTime="0.00" timeLoss="62.60" rerouteNo="0" devices="tripinfo_s1-w4_0.14" vType="DEFAULT_VEHTYPE" speedFactor="1.14" vaporized=""/>
    <tripinfo id="s1-w4_0.16" depart="82.00" departLane="OrigionS1_0" departPos="5.10" departSpeed="0.00" departDelay="-0.27" arrival="201.00" arrivalLane="DestinationW4_0" arrivalPos="242.47" arrivalSpeed="25.62" duration="119.00" routeLength="2089.17" waitingTime="16.00" waitingCount="1" stopTime="0.00" timeLoss="41.61" rerouteNo="0" devices="tripinfo_s1-w4_0.16" vType="DEFAULT_VEHTYPE" speedFactor="0.98" vaporized=""/>
    <tripinfo id="s4-n5_0.0" depart="0.00" departLane="OrigionS4_0" departPos="5.10" departSpeed="0.00" departDelay="0.00" arrival="202.00" arrivalLane="DestinationN5_0" arrivalPos="178.17" arrivalSpeed="14.42" duration="202.00" routeLength="3209.41" waitingTime="32.00" waitingCount="2" stopTime="0.00" timeLoss="70.87" rerouteNo="0" devices="tripinfo_s4-n5_0.0" vType="DEFAULT_VEHTYPE" speedFactor="1.09" vaporized=""/>
    <tripinfo id="s1-w4_0.18" depart="92.00" departLane="OrigionS1_0" departPos="5.10" departSpeed="0.00" departDelay="-0.56" arrival="205.00" arrivalLane="DestinationW4_1" arrivalPos="242.47" arrivalSpeed="26.91" duration="113.00" routeLength="2089.17" waitingTime="17.00" waitingCount="1" stopTime="0.00" timeLoss="35.79" rerouteNo="0" devices="tripinfo_s1-w4_0.18" vType="DEFAULT_VEHTYPE" speedFactor="0.98" vaporized=""/>
    <tripinfo id="s1-w4_0.17" depart="87.00" departLane="OrigionS1_0" departPos="5.10" departSpeed="0.00" departDelay="-0.41" arrival="206.00" arrivalLane="DestinationW4_0" arrivalPos="242.47" arrivalSpeed="26.68" duration="119.00" routeLength="2089.17" waitingTime="24.00" waitingCount="1" stopTime="0.00" timeLoss="42.25" rerouteNo="0" devices="tripinfo_s1-w4_0.17" vType="DEFAULT_VEHTYPE" speedFactor="0.99" vaporized=""/>
    <tripinfo id="s6-w5_0.0" depart="0.00" departLane="OrigionS6_0" departPos="5.10" departSpeed="0.00" departDelay="0.00" arrival="212.00" arrivalLane="DestinationW5_0" arrivalPos="259.12" arrivalSpeed="14.64" duration="212.00" routeLength="3323.55" waitingTime="56.00" waitingCount="2" stopTime="0.00" timeLoss="91.12" rerouteNo="0" devices="tripinfo_s6-w5_0.0" vType="DEFAULT_VEHTYPE" speedFactor="1.08" vaporized=""/>
    <tripinfo id="n2-s8_0.0" depart="0.00" departLane="OrigionN2_0" departPos="5.10" departSpeed="0.00" departDelay="0.00" arrival="216.00" arrivalLane="DestinationS8_0" arrivalPos="419.24" arrivalSpeed="24.25" duration="216.00" routeLength="3729.72" waitingTime="31.00" waitingCount="2" stopTime="0.00" timeLoss="80.35" rerouteNo="0" devices="tripinfo_n2-s8_0.0" vType="DEFAULT_VEHTYPE" speedFactor="1.14" vaporized=""/>
    <tripinfo id="s4-n5_0.1" depart="5.00" departLane="OrigionS4_0" departPos="5.10" departSpeed="0.00" departDelay="-0.14" arrival="221.00" arrivalLane="DestinationN5_0" arrivalPos="178.17" arrivalSpeed="11.28" duration="216.00" routeLength="3209.41" waitingTime="21.00" waitingCount="2" stopTime="0.00" timeLoss="57.61" rerouteNo="0" devices="tripinfo_s4-n5_0.1" vType="DEFAULT_VEHTYPE" speedFactor="0.90" vaporized=""/>
    <tripinfo id="n2-s8_0.1" depart="8.00" departLane="OrigionN2_0" departPos="5.10" departSpeed="0.00" departDelay="-0.57" arrival="224.00" arrivalLane="DestinationS8_0" arrivalPos="419.24" arrivalSpeed="20.11" duration="216.00" routeLength="3729.72" waitingTime="16.00" waitingCount="2" stopTime="0.00" timeLoss="47.09" rerouteNo="0" devices="tripinfo_n2-s8_0.1" vType="DEFAULT_VEHTYPE" speedFactor="0.92" vaporized=""/>
    <tripinfo id="n2-s8_0.2" depart="17.00" departLane="OrigionN2_0" departPos="5.10" departSpeed="0.00" departDelay="-0.14" arrival="226.00" arrivalLane="DestinationS8_0" arrivalPos="419.24" arrivalSpeed="22.64" duration="209.00" routeLength="3729.72" waitingTime="11.00" waitingCount="2" stopTime="0.00" timeLoss="63.78" rerouteNo="0" devices="tripinfo_n2-s8_0.2" vType="DEFAULT_VEHTYPE" speedFactor="1.07" vaporized=""/>
    <tripinfo id="n2-s8_0.3" depart="25.00" departLane="OrigionN2_0" departPos="5.10" departSpeed="0.00" departDelay="-0.71" arrival="227.00" arrivalLane="DestinationS8_0" arrivalPos="419.24" arrivalSpeed="23.15" duration="202.00" routeLength="3729.72" waitingTime="10.00" waitingCount="1" stopTime="0.00" timeLoss="62.78" rerouteNo="0" devices="tripinfo_n2-s8_0.3" vType="DEFAULT_VEHTYPE" speedFactor="1.11" vaporized=""/>
    <tripinfo id="e5-e1_0.1" depart="8.00" departLane="OrigionE5_0" departPos="5.10" departSpeed="0.00" departDelay="-0.57" arrival="228.00" arrivalLane="DestinationE1_0" arrivalPos="250.56" arrivalSpeed="20.05" duration="220.00" routeLength="2162.05" waitingTime="70.00" waitingCount="3" stopTime="0.00" timeLoss="103.11" rerouteNo="0" devices="tripinfo_e5-e1_0.1" vType="DEFAULT_VEHTYPE" speedFactor="0.92" vaporized=""/>
    <tripinfo id="e5-e1_0.2" depart="17.00" departLane="OrigionE5_0" departPos="5.10" departSpeed="0.00" departDelay="-0.14" arrival="230.00" arrivalLane="DestinationE1_0" arrivalPos="250.56" arrivalSpeed="22.68" duration="213.00" routeLength="2162.05" waitingTime="64.00" waitingCount="3" stopTime="0.00" timeLoss="112.99" rerouteNo="0" devices="tripinfo_e5-e1_0.2" vType="DEFAULT_VEHTYPE" speedFactor="1.09" vaporized=""/>
    <tripinfo id="e5-e1_0.3" depart="25.00" departLane="OrigionE5_0" departPos="5.10" departSpeed="0.00" departDelay="-0.71" arrival="231.00" arrivalLane="DestinationE1_0" arrivalPos="250.56" arrivalSpeed="22.23" duration="206.00" routeLength="2162.05" waitingTime="57.00" waitingCount="3" stopTime="0.00" timeLoss="102.29" rerouteNo="0" devices="tripinfo_e5-e1_0.3" vType="DEFAULT_VEHTYPE" speedFactor="1.04" vaporized=""/>
    <tripinfo id="e5-e1_0.4" depart="34.00" departLane="OrigionE5_0" departPos="5.10" departSpeed="0.00" departDelay="-0.28" arrival="233.00" arrivalLane="DestinationE1_0" arrivalPos="250.56" arrivalSpeed="22.31" duration="199.00" routeLength="2162.05" waitingTime="48.00" waitingCount="3" stopTime="0.00" timeLoss="93.29" rerouteNo="0" devices="tripinfo_e5-e1_0.4" vType="DEFAULT_VEHTYPE" speedFactor="1.02" vaporized=""/>
    <tripinfo id="e5-e1_0.5" depart="42.00" departLane="OrigionE5_0" departPos="5.10" departSpeed="0.00" departDelay="-0.85" arrival="236.00" arrivalLane="DestinationE1_0" arrivalPos="250.56" arrivalSpeed="17.81" duration="194.00" routeLength="2162.05" waitingTime="34.00" waitingCount="2" stopTime="0.00" timeLoss="62.11" rerouteNo="0" devices="tripinfo_e5-e1_0.5" vType="DEFAULT_VEHTYPE" speedFactor="0.82" vaporized=""/>
    <tripinfo id="e5-e1_0.6" depart="51.00" departLane="OrigionE5_0" departPos="5.10" departSpeed="0.00" departDelay="-0.43" arrival="238.00" arrivalLane="DestinationE1_0" arrivalPos="250.56" arrivalSpeed="20.88" duration="187.00" routeLength="2162.05" waitingTime="32.00" waitingCount="2" stopTime="0.00" timeLoss="93.95" rerouteNo="0" devices="tripinfo_e5-e1_0.6" vType="DEFAULT_VEHTYPE" speedFactor="1.17" vaporized=""/>
    <tripinfo id="e5-e1_0.7" depart="59.00" departLane="OrigionE5_0" departPos="5.10" departSpeed="0.00" departDelay="-1.00" arrival="239.00" arrivalLane="DestinationE1_0" arrivalPos="250.56" arrivalSpeed="20.52" duration="180.00" routeLength="2162.05" waitingTime="30.00" waitingCount="2" stopTime="0.00" timeLoss="71.21" rerouteNo="0" devices="tripinfo_e5-e1_0.7" vType="DEFAULT_VEHTYPE" speedFactor="0.99" vaporized=""/>
    <tripinfo id="e5-e1_0.8" depart="68.00" departLane="OrigionE5_0" departPos="5.10" departSpeed="0.00" departDelay="-0.57" arrival="241.00" arrivalLane="DestinationE1_0" arrivalPos="250.56" arrivalSpeed="22.90" duration="173.00" routeLength="2162.05" waitingTime="27.00" waitingCount="2" stopTime="0.00" timeLoss="70.00" rerouteNo="0" devices="tripinfo_e5-e1_0.8" vType="DEFAULT_VEHTYPE" speedFactor="1.05" vaporized=""/>
    <tripinfo id="e3-s5_0.2" depart="20.00" departLane="OrigionE3_0" departPos="5.10" departSpeed="0.00" departDelay="2.86" arrival="243.00" arrivalLane="DestinationS5_0" arrivalPos="746.72" arrivalSpeed="23.54" duration="223.00" routeLength="3631.94" waitingTime="51.00" waitingCount="3" stopTime="0.00" timeLoss="95.36" rerouteNo="0" devices="tripinfo_e3-s5_0.2" vType="DEFAULT_VEHTYPE" speedFactor="1.09" vaporized=""/>
    <tripinfo id="w4-s1_0.18" depart="92.00" departLane="OrigionW4_0" departPos="5.10" departSpeed="0.00" departDelay="-0.56" arrival="246.00" arrivalLane="DestinationS1_0" arrivalPos="373.48" arrivalSpeed="28.37" duration="154.00" routeLength="2089.17" waitingTime="50.00" waitingCount="2" stopTime="0.00" timeLoss="81.74" rerouteNo="0" devices="tripinfo_w4-s1_0.18" vType="DEFAULT_VEHTYPE" speedFactor="1.05" vaporized=""/>
    <tripinfo id="w4-s1_0.19" depart="97.00" departLane="OrigionW4_0" departPos="5.10" departSpeed="0.00" departDelay="-0.70" arrival="248.00" arrivalLane="DestinationS1_0" arrivalPos="373.48" arrivalSpeed="26.56" duration="151.00" routeLength="2089.17" waitingTime="42.00" waitingCount="2" stopTime="0.00" timeLoss="72.01" rerouteNo="0" devices="tripinfo_w4-s1_0.19" vType="DEFAULT_VEHTYPE" speedFactor="0.96" vaporized=""/>
    <tripinfo id="w4-s1_0.20" depart="102.00" departLane="OrigionW4_0" departPos="5.10" departSpeed="0.00" departDelay="-0.84" arrival="249.00" arrivalLane="DestinationS1_1" arrivalPos="373.48" arrivalSpeed="26.45" duration="147.00" routeLength="2089.17" waitingTime="37.00" waitingCount="2" stopTime="0.00" timeLoss="68.65" rerouteNo="0" devices="tripinfo_w4-s1_0.20" vType="DEFAULT_VEHTYPE" speedFactor="0.96" vaporized=""/>
    <tripinfo id="s1-w4_0.19" depart="97.00" departLane="OrigionS1_0" departPos="5.10" departSpeed="0.00" departDelay="-0.70" arrival="251.00" arrivalLane="DestinationW4_0" arrivalPos="242.47" arrivalSpeed="28.45" duration="154.00" routeLength="2089.17" waitingTime="56.00" waitingCount="2" stopTime="0.00" timeLoss="81.21" rerouteNo="0" devices="tripinfo_s1-w4_0.19" vType="DEFAULT_VEHTYPE" speedFactor="1.04" vaporized=""/>
    <tripinfo id="w4-s1_0.23" depart="118.00" departLane="OrigionW4_0" departPos="5.10" departSpeed="0.00" departDelay="-0.27" arrival="251.00" arrivalLane="DestinationS1_1" arrivalPos="373.48" arrivalSpeed="29.33" duration="133.00" routeLength="2089.17" waitingTime="25.00" waitingCount="2" stopTime="0.00" timeLoss="65.83" rerouteNo="0" devices="tripinfo_w4-s1_0.23" vType="DEFAULT_VEHTYPE" speedFactor="1.13" vaporized=""/>
    <tripinfo id="w4-s1_0.21" depart="107.00" departLane="OrigionW4_0" departPos="5.10" departSpeed="0.00" departDelay="-0.98" arrival="251.00" arrivalLane="DestinationS1_0" arrivalPos="373.48" arrivalSpeed="29.00" duration="144.00" routeLength="2089.17" waitingTime="31.00" waitingCount="2" stopTime="0.00" timeLoss="77.65" rerouteNo="0" devices="tripinfo_w4-s1_0.21" vType="DEFAULT_VEHTYPE" speedFactor="1.15" vaporized=""/>
    <tripinfo id="e5-e1_0.9" depart="77.00" departLane="OrigionE5_0" departPos="5.10" departSpeed="0.00" departDelay="-0.14" arrival="251.00" arrivalLane="DestinationE1_0" arrivalPos="250.56" arrivalSpeed="22.17" duration="174.00" routeLength="2162.05" waitingTime="39.00" waitingCount="3" stopTime="0.00" timeLoss="69.85" rerouteNo="0" devices="tripinfo_e5-e1_0.9" vType="DEFAULT_VEHTYPE" speedFactor="1.04" vaporized=""/>
    <tripinfo id="w4-s1_0.24" depart="123.00" departLane="OrigionW4_0" departPos="5.10" departSpeed="0.00" departDelay="-0.41" arrival="252.00" arrivalLane="DestinationS1_1" arrivalPos="373.48" arrivalSpeed="27.77" duration="129.00" routeLength="2089.17" waitingTime="19.00" waitingCount="2" stopTime="0.00" timeLoss="66.05" rerouteNo="0" devices="tripinfo_w4-s1_0.24" vType="DEFAULT_VEHTYPE" speedFactor="1.20" vaporized=""/>
    <tripinfo id="e3-s5_0.0" depart="3.00" departLane="OrigionE3_0" departPos="5.10" departSpeed="0.00" departDelay="3.00" arrival="252.00" arrivalLane="DestinationS5_0" arrivalPos="746.72" arrivalSpeed="20.45" duration="249.00" routeLength="3631.94" waitingTime="61.00" waitingCount="3" stopTime="0.00" timeLoss="101.19" rerouteNo="0" devices="tripinfo_e3-s5_0.0" vType="DEFAULT_VEHTYPE" speedFactor="0.93" vaporized=""/>
    <tripinfo id="s1-w4_0.22" depart="113.00" departLane="OrigionS1_0" departPos="5.10" departSpeed="0.00" departDelay="-0.12" arrival="253.00" arrivalLane="DestinationW4_1" arrivalPos="242.47" arrivalSpeed="27.07" duration="140.00" routeLength="2089.17" waitingTime="33.00" waitingCount="1" stopTime="0.00" timeLoss="65.48" rerouteNo="0" devices="tripinfo_s1-w4_0.22" vType="DEFAULT_VEHTYPE" speedFactor="1.01" vaporized=""/>
    <tripinfo id="s1-w4_0.20" depart="102.00" departLane="OrigionS1_0" departPos="5.10" departSpeed="0.00" departDelay="-0.84" arrival="254.00" arrivalLane="DestinationW4_0" arrivalPos="242.47" arrivalSpeed="24.96" duration="152.00" routeLength="2089.17" waitingTime="40.00" waitingCount="2" stopTime="0.00" timeLoss="71.27" rerouteNo="0" devices="tripinfo_s1-w4_0.20" vType="DEFAULT_VEHTYPE" speedFactor="0.94" vaporized=""/>
    <tripinfo id="w4-s1_0.26" depart="133.00" departLane="OrigionW4_0" departPos="5.10" departSpeed="0.00" departDelay="-0.69" arrival="254.00" arrivalLane="DestinationS1_1" arrivalPos="373.48" arrivalSpeed="28.34" duration="121.00" routeLength="2089.17" waitingTime="13.00" waitingCount="1" stopTime="0.00" timeLoss="48.28" rerouteNo="0" devices="tripinfo_w4-s1_0.26" vType="DEFAULT_VEHTYPE" speedFactor="1.05" vaporized=""/>
    <tripinfo id="w4-s1_0.22" depart="113.00" departLane="OrigionW4_0" departPos="5.10" departSpeed="0.00" departDelay="-0.12" arrival="254.00" arrivalLane="DestinationS1_0" arrivalPos="373.48" arrivalSpeed="23.70" duration="141.00" routeLength="2089.17" waitingTime="24.00" waitingCount="2" stopTime="0.00" timeLoss="54.97" rerouteNo="0" devices="tripinfo_w4-s1_0.22" vType="DEFAULT_VEHTYPE" speedFactor="0.88" vaporized=""/>