<?xml version="1.0" encoding="UTF-8"?>

<!-- generated on Thu Apr 11 21:57:49 2019 by Eclipse SUMO Version v1_0_1+0999-ba34606b5d
<configuration xmlns:xsi="http://www.w3.org/2001/XMLSchema-instance" xsi:noNamespaceSchemaLocation="http://sumo.dlr.de/xsd/sumoConfiguration.xsd">

    <input>
        <net-file value="Chj_final.net.xml"/>
        <route-files value="Chj_Demand8.rou.xml"/>
        <additional-files value="loops.xml"/>
    </input>

    <output>
        <queue-output value="HTSCTestqueue8.xml"/>
        <summary-output value="HTSCTestsummary8.xml"/>
        <tripinfo-output value="HTSCTesttripinfo8.xml"/>
    </output>

    <time>
        <begin value="0"/>
        <end value="3600"/>
    </time>

    <report>
        <xml-validation value="never"/>
        <duration-log.disable value="true"/>
        <no-step-log value="true"/>
    </report>

    <traci_server>
        <remote-port value="38647"/>
    </traci_server>

    <random_number>
        <seed value="10"/>
    </random_number>

</configuration>
-->

<tripinfos xmlns:xsi="http://www.w3.org/2001/XMLSchema-instance" xsi:noNamespaceSchemaLocation="http://sumo.dlr.de/xsd/tripinfo_file.xsd">
    <tripinfo id="s1-w4_0.1" depart="4.00" departLane="OrigionS1_0" departPos="5.10" departSpeed="0.00" departDelay="-0.50" arrival="80.00" arrivalLane="DestinationW4_1" arrivalPos="242.47" arrivalSpeed="30.69" duration="76.00" routeLength="2089.17" waitingTime="0.00" waitingCount="0" stopTime="0.00" timeLoss="9.41" rerouteNo="0" devices="tripinfo_s1-w4_0.1" vType="DEFAULT_VEHTYPE" speedFactor="1.15" vaporized=""/>
    <tripinfo id="s1-w4_0.0" depart="0.00" departLane="OrigionS1_0" departPos="5.10" departSpeed="0.00" departDelay="0.00" arrival="86.00" arrivalLane="DestinationW4_0" arrivalPos="242.47" arrivalSpeed="26.74" duration="86.00" routeLength="2089.17" waitingTime="0.00" waitingCount="0" stopTime="0.00" timeLoss="8.30" rerouteNo="0" devices="tripinfo_s1-w4_0.0" vType="DEFAULT_VEHTYPE" speedFactor="0.98" vaporized=""/>
    <tripinfo id="w4-s1_0.4" depart="18.00" departLane="OrigionW4_0" departPos="5.10" departSpeed="0.00" departDelay="0.00" arrival="127.00" arrivalLane="DestinationS1_1" arrivalPos="373.48" arrivalSpeed="29.83" duration="109.00" routeLength="2089.17" waitingTime="18.00" waitingCount="1" stopTime="0.00" timeLoss="40.00" rerouteNo="0" devices="tripinfo_w4-s1_0.4" vType="DEFAULT_VEHTYPE" speedFactor="1.10" vaporized=""/>
    <tripinfo id="w4-s1_0.6" depart="27.00" departLane="OrigionW4_0" departPos="5.10" departSpeed="0.00" departDelay="0.00" arrival="128.00" arrivalLane="DestinationS1_1" arrivalPos="373.48" arrivalSpeed="31.57" duration="101.00" routeLength="2089.17" waitingTime="15.00" waitingCount="1" stopTime="0.00" timeLoss="38.87" rerouteNo="0" devices="tripinfo_w4-s1_0.6" vType="DEFAULT_VEHTYPE" speedFactor="1.22" vaporized=""/>
    <tripinfo id="w4-s1_0.2" depart="9.00" departLane="OrigionW4_0" departPos="5.10" departSpeed="0.00" departDelay="0.00" arrival="129.00" arrivalLane="DestinationS1_0" arrivalPos="373.48" arrivalSpeed="24.86" duration="120.00" routeLength="2089.17" waitingTime="18.00" waitingCount="1" stopTime="0.00" timeLoss="37.81" rerouteNo="0" devices="tripinfo_w4-s1_0.2" vType="DEFAULT_VEHTYPE" speedFactor="0.92" vaporized=""/>
    <tripinfo id="w4-s1_0.0" depart="0.00" departLane="OrigionW4_0" departPos="5.10" departSpeed="0.00" departDelay="0.00" arrival="131.00" arrivalLane="DestinationS1_1" arrivalPos="373.48" arrivalSpeed="25.55" duration="131.00" routeLength="2089.17" waitingTime="20.00" waitingCount="2" stopTime="0.00" timeLoss="52.06" rerouteNo="0" devices="tripinfo_w4-s1_0.0" vType="DEFAULT_VEHTYPE" speedFactor="0.96" vaporized=""/>
    <tripinfo id="e5-e1_0.0" depart="0.00" departLane="OrigionE5_0" departPos="5.10" departSpeed="0.00" departDelay="0.00" arrival="131.00" arrivalLane="DestinationE1_0" arrivalPos="250.56" arrivalSpeed="22.54" duration="131.00" routeLength="2162.05" waitingTime="7.00" waitingCount="1" stopTime="0.00" timeLoss="27.93" rerouteNo="0" devices="tripinfo_e5-e1_0.0" vType="DEFAULT_VEHTYPE" speedFactor="1.05" vaporized=""/>
    <tripinfo id="s1-w4_0.3" depart="13.00" departLane="OrigionS1_0" departPos="5.10" departSpeed="0.00" departDelay="-0.50" arrival="132.00" arrivalLane="DestinationW4_1" arrivalPos="242.47" arrivalSpeed="27.33" duration="119.00" routeLength="2089.17" waitingTime="26.00" waitingCount="1" stopTime="0.00" timeLoss="44.15" rerouteNo="0" devices="tripinfo_s1-w4_0.3" vType="DEFAULT_VEHTYPE" speedFactor="1.02" vaporized=""/>
    <tripinfo id="s1-w4_0.2" depart="9.00" departLane="OrigionS1_0" departPos="5.10" departSpeed="0.00" departDelay="0.00" arrival="132.00" arrivalLane="DestinationW4_0" arrivalPos="242.47" arrivalSpeed="26.99" duration="123.00" routeLength="2089.17" waitingTime="31.00" waitingCount="1" stopTime="0.00" timeLoss="50.21" rerouteNo="0" devices="tripinfo_s1-w4_0.2" vType="DEFAULT_VEHTYPE" speedFactor="1.04" vaporized=""/>
    <tripinfo id="w4-s1_0.1" depart="4.00" departLane="OrigionW4_0" departPos="5.10" departSpeed="0.00" departDelay="-0.50" arrival="132.00" arrivalLane="DestinationS1_0" arrivalPos="373.48" arrivalSpeed="22.32" duration="128.00" routeLength="2089.17" waitingTime="18.00" waitingCount="1" stopTime="0.00" timeLoss="35.50" rerouteNo="0" devices="tripinfo_w4-s1_0.1" vType="DEFAULT_VEHTYPE" speedFactor="0.81" vaporized=""/>
    <tripinfo id="s1-w4_0.4" depart="18.00" departLane="OrigionS1_0" departPos="5.10" departSpeed="0.00" departDelay="0.00" arrival="133.00" arrivalLane="DestinationW4_1" arrivalPos="242.47" arrivalSpeed="29.01" duration="115.00" routeLength="2089.17" waitingTime="23.00" waitingCount="1" stopTime="0.00" timeLoss="43.79" rerouteNo="0" devices="tripinfo_s1-w4_0.4" vType="DEFAULT_VEHTYPE" speedFactor="1.06" vaporized=""/>
    <tripinfo id="w4-s1_0.5" depart="22.00" departLane="OrigionW4_0" departPos="5.10" departSpeed="0.00" departDelay="-0.50" arrival="133.00" arrivalLane="DestinationS1_1" arrivalPos="373.48" arrivalSpeed="27.88" duration="111.00" routeLength="2089.17" waitingTime="13.00" waitingCount="1" stopTime="0.00" timeLoss="35.54" rerouteNo="0" devices="tripinfo_w4-s1_0.5" vType="DEFAULT_VEHTYPE" speedFactor="1.01" vaporized=""/>
    <tripinfo id="s1-w4_0.5" depart="22.00" departLane="OrigionS1_0" departPos="5.10" departSpeed="0.00" departDelay="-0.50" arrival="134.00" arrivalLane="DestinationW4_0" arrivalPos="242.47" arrivalSpeed="27.44" duration="112.00" routeLength="2089.17" waitingTime="15.00" waitingCount="2" stopTime="0.00" timeLoss="37.17" rerouteNo="0" devices="tripinfo_s1-w4_0.5" vType="DEFAULT_VEHTYPE" speedFactor="1.02" vaporized=""/>
    <tripinfo id="w4-s1_0.3" depart="13.00" departLane="OrigionW4_0" departPos="5.10" departSpeed="0.00" departDelay="-0.50" arrival="134.00" arrivalLane="DestinationS1_0" arrivalPos="373.48" arrivalSpeed="24.10" duration="121.00" routeLength="2089.17" waitingTime="15.00" waitingCount="1" stopTime="0.00" timeLoss="34.90" rerouteNo="0" devices="tripinfo_w4-s1_0.3" vType="DEFAULT_VEHTYPE" speedFactor="0.88" vaporized=""/>
    <tripinfo id="s1-w4_0.7" depart="31.00" departLane="OrigionS1_0" departPos="5.10" departSpeed="0.00" departDelay="-0.50" arrival="142.00" arrivalLane="DestinationW4_0" arrivalPos="242.47" arrivalSpeed="28.78" duration="111.00" routeLength="2089.17" waitingTime="20.00" waitingCount="1" stopTime="0.00" timeLoss="40.70" rerouteNo="0" devices="tripinfo_s1-w4_0.7" vType="DEFAULT_VEHTYPE" speedFactor="1.08" vaporized=""/>
    <tripinfo id="e5-e1_0.1" depart="7.00" departLane="OrigionE5_0" departPos="5.10" departSpeed="0.00" departDelay="-0.50" arrival="166.00" arrivalLane="DestinationE1_0" arrivalPos="250.56" arrivalSpeed="25.57" duration="159.00" routeLength="2162.05" waitingTime="35.00" waitingCount="2" stopTime="0.00" timeLoss="65.01" rerouteNo="0" devices="tripinfo_e5-e1_0.1" vType="DEFAULT_VEHTYPE" speedFactor="1.15" vaporized=""/>
    <tripinfo id="w4-s1_0.10" depart="45.00" departLane="OrigionW4_0" departPos="5.10" departSpeed="0.00" departDelay="0.00" arrival="184.00" arrivalLane="DestinationS1_1" arrivalPos="373.48" arrivalSpeed="30.04" duration="139.00" routeLength="2089.17" waitingTime="35.00" waitingCount="2" stopTime="0.00" timeLoss="69.86" rerouteNo="0" devices="tripinfo_w4-s1_0.10" vType="DEFAULT_VEHTYPE" speedFactor="1.09" vaporized=""/>
    <tripinfo id="w4-s1_0.12" depart="54.00" departLane="OrigionW4_0" departPos="5.10" departSpeed="0.00" departDelay="0.00" arrival="186.00" arrivalLane="DestinationS1_1" arrivalPos="373.48" arrivalSpeed="33.09" duration="132.00" routeLength="2089.17" waitingTime="31.00" waitingCount="2" stopTime="0.00" timeLoss="73.05" rerouteNo="0" devices="tripinfo_w4-s1_0.12" vType="DEFAULT_VEHTYPE" speedFactor="1.29" vaporized=""/>
    <tripinfo id="w4-s1_0.9" depart="40.00" departLane="OrigionW4_0" departPos="5.10" departSpeed="0.00" departDelay="-0.50" arrival="187.00" arrivalLane="DestinationS1_0" arrivalPos="373.48" arrivalSpeed="26.14" duration="147.00" routeLength="2089.17" waitingTime="39.00" waitingCount="2" stopTime="0.00" timeLoss="70.03" rerouteNo="0" devices="tripinfo_w4-s1_0.9" vType="DEFAULT_VEHTYPE" speedFactor="0.98" vaporized=""/>
    <tripinfo id="w4-s1_0.13" depart="58.00" departLane="OrigionW4_0" departPos="5.10" departSpeed="0.00" departDelay="-0.50" arrival="188.00" arrivalLane="DestinationS1_1" arrivalPos="373.48" arrivalSpeed="30.64" duration="130.00" routeLength="2089.17" waitingTime="26.00" waitingCount="2" stopTime="0.00" timeLoss="61.64" rerouteNo="0" devices="tripinfo_w4-s1_0.13" vType="DEFAULT_VEHTYPE" speedFactor="1.12" vaporized=""/>
    <tripinfo id="w4-s1_0.11" depart="49.00" departLane="OrigionW4_0" departPos="5.10" departSpeed="0.00" departDelay="-0.50" arrival="191.00" arrivalLane="DestinationS1_1" arrivalPos="373.48" arrivalSpeed="28.60" duration="142.00" routeLength="2089.17" waitingTime="32.00" waitingCount="2" stopTime="0.00" timeLoss="68.52" rerouteNo="0" devices="tripinfo_w4-s1_0.11" vType="DEFAULT_VEHTYPE" speedFactor="1.03" vaporized=""/>
    <tripinfo id="w4-s1_0.7" depart="31.00" departLane="OrigionW4_0" departPos="5.10" departSpeed="0.00" departDelay="-0.50" arrival="192.00" arrivalLane="DestinationS1_0" arrivalPos="373.48" arrivalSpeed="23.77" duration="161.00" routeLength="2089.17" waitingTime="45.00" waitingCount="2" stopTime="0.00" timeLoss="72.90" rerouteNo="0" devices="tripinfo_w4-s1_0.7" vType="DEFAULT_VEHTYPE" speedFactor="0.86" vaporized=""/>
    <tripinfo id="s1-w4_0.6" depart="27.00" departLane="OrigionS1_0" departPos="5.10" departSpeed="0.00" departDelay="0.00" arrival="194.00" arrivalLane="DestinationW4_0" arrivalPos="242.47" arrivalSpeed="24.41" duration="167.00" routeLength="2089.17" waitingTime="60.00" waitingCount="2" stopTime="0.00" timeLoss="84.32" rerouteNo="0" devices="tripinfo_s1-w4_0.6" vType="DEFAULT_VEHTYPE" speedFactor="0.92" vaporized=""/>
    <tripinfo id="s1-w4_0.8" depart="36.00" departLane="OrigionS1_0" departPos="5.10" departSpeed="0.00" departDelay="0.00" arrival="197.00" arrivalLane="DestinationW4_1" arrivalPos="242.47" arrivalSpeed="23.01" duration="161.00" routeLength="2089.17" waitingTime="41.00" waitingCount="2" stopTime="0.00" timeLoss="70.10" rerouteNo="0" devices="tripinfo_s1-w4_0.8" vType="DEFAULT_VEHTYPE" speedFactor="0.83" vaporized=""/>
    <tripinfo id="w4-s1_0.8" depart="36.00" departLane="OrigionW4_0" departPos="5.10" departSpeed="0.00" departDelay="0.00" arrival="197.00" arrivalLane="DestinationS1_0" arrivalPos="373.48" arrivalSpeed="21.12" duration="161.00" routeLength="2089.17" waitingTime="37.00" waitingCount="2" stopTime="0.00" timeLoss="64.98" rerouteNo="0" devices="tripinfo_w4-s1_0.8" vType="DEFAULT_VEHTYPE" speedFactor="0.79" vaporized=""/>
    <tripinfo id="w4-s1_0.15" depart="67.00" departLane="OrigionW4_0" departPos="5.10" departSpeed="0.00" departDelay="-0.50" arrival="197.00" arrivalLane="DestinationS1_1" arrivalPos="373.48" arrivalSpeed="23.45" duration="130.00" routeLength="2089.17" waitingTime="12.00" waitingCount="1" stopTime="0.00" timeLoss="43.27" rerouteNo="0" devices="tripinfo_w4-s1_0.15" vType="DEFAULT_VEHTYPE" speedFactor="0.88" vaporized=""/>
    <tripinfo id="s1-w4_0.11" depart="49.00" departLane="OrigionS1_0" departPos="5.10" departSpeed="0.00" departDelay="-0.50" arrival="198.00" arrivalLane="DestinationW4_1" arrivalPos="242.47" arrivalSpeed="24.26" duration="149.00" routeLength="2089.17" waitingTime="30.00" waitingCount="1" stopTime="0.00" timeLoss="64.39" rerouteNo="0" devices="tripinfo_s1-w4_0.11" vType="DEFAULT_VEHTYPE" speedFactor="0.89" vaporized=""/>
    <tripinfo id="s1-w4_0.9" depart="40.00" departLane="OrigionS1_0" departPos="5.10" departSpeed="0.00" departDelay="-0.50" arrival="198.00" arrivalLane="DestinationW4_0" arrivalPos="242.47" arrivalSpeed="23.87" duration="158.00" routeLength="2089.17" waitingTime="43.00" waitingCount="2" stopTime="0.00" timeLoss="72.25" rerouteNo="0" devices="tripinfo_s1-w4_0.9" vType="DEFAULT_VEHTYPE" speedFactor="0.88" vaporized=""/>
    <tripinfo id="w4-s1_0.16" depart="72.00" departLane="OrigionW4_0" departPos="5.10" departSpeed="0.00" departDelay="0.00" arrival="198.00" arrivalLane="DestinationS1_1" arrivalPos="373.48" arrivalSpeed="26.48" duration="126.00" routeLength="2089.17" waitingTime="10.00" waitingCount="1" stopTime="0.00" timeLoss="56.11" rerouteNo="0" devices="tripinfo_w4-s1_0.16" vType="DEFAULT_VEHTYPE" speedFactor="1.08" vaporized=""/>
    <tripinfo id="w4-s1_0.14" depart="63.00" departLane="OrigionW4_0" departPos="5.10" departSpeed="0.00" departDelay="0.00" arrival="199.00" arrivalLane="DestinationS1_0" arrivalPos="373.48" arrivalSpeed="23.63" duration="136.00" routeLength="2089.17" waitingTime="15.00" waitingCount="2" stopTime="0.00" timeLoss="66.89" rerouteNo="0" devices="tripinfo_w4-s1_0.14" vType="DEFAULT_VEHTYPE" speedFactor="1.10" vaporized=""/>
    <tripinfo id="w4-s1_0.18" depart="81.00" departLane="OrigionW4_0" departPos="5.10" departSpeed="0.00" departDelay="0.00" arrival="199.00" arrivalLane="DestinationS1_1" arrivalPos="373.48" arrivalSpeed="26.59" duration="118.00" routeLength="2089.17" waitingTime="9.00" waitingCount="1" stopTime="0.00" timeLoss="49.86" rerouteNo="0" devices="tripinfo_w4-s1_0.18" vType="DEFAULT_VEHTYPE" speedFactor="1.11" vaporized=""/>
    <tripinfo id="n7-s3_0.0" depart="0.00" departLane="OrigionN7_0" departPos="5.10" departSpeed="0.00" departDelay="0.00" arrival="199.00" arrivalLane="DestinationS3_0" arrivalPos="924.28" arrivalSpeed="33.00" duration="199.00" routeLength="4886.27" waitingTime="29.00" waitingCount="1" stopTime="0.00" timeLoss="52.70" rerouteNo="0" devices="tripinfo_n7-s3_0.0" vType="DEFAULT_VEHTYPE" speedFactor="1.20" vaporized=""/>
    <tripinfo id="s1-w4_0.12" depart="54.00" departLane="OrigionS1_0" departPos="5.10" departSpeed="0.00" departDelay="0.00" arrival="200.00" arrivalLane="DestinationW4_1" arrivalPos="242.47" arrivalSpeed="26.20" duration="146.00" routeLength="2089.17" waitingTime="30.00" waitingCount="1" stopTime="0.00" timeLoss="70.87" rerouteNo="0" devices="tripinfo_s1-w4_0.12" vType="DEFAULT_VEHTYPE" speedFactor="1.01" vaporized=""/>
    <tripinfo id="w4-s1_0.17" depart="76.00" departLane="OrigionW4_0" departPos="5.10" departSpeed="0.00" departDelay="-0.50" arrival="200.00" arrivalLane="DestinationS1_0" arrivalPos="373.48" arrivalSpeed="23.75" duration="124.00" routeLength="2089.17" waitingTime="10.00" waitingCount="1" stopTime="0.00" timeLoss="50.77" rerouteNo="0" devices="tripinfo_w4-s1_0.17" vType="DEFAULT_VEHTYPE" speedFactor="1.03" vaporized=""/>
    <tripinfo id="s1-w4_0.13" depart="58.00" departLane="OrigionS1_0" departPos="5.10" departSpeed="0.00" departDelay="-0.50" arrival="201.00" arrivalLane="DestinationW4_1" arrivalPos="242.47" arrivalSpeed="25.16" duration="143.00" routeLength="2089.17" waitingTime="29.00" waitingCount="2" stopTime="0.00" timeLoss="68.14" rerouteNo="0" devices="tripinfo_s1-w4_0.13" vType="DEFAULT_VEHTYPE" speedFactor="1.01" vaporized=""/>
    <tripinfo id="w4-s1_0.19" depart="85.00" departLane="OrigionW4_0" departPos="5.10" departSpeed="0.00" departDelay="-0.50" arrival="202.00" arrivalLane="DestinationS1_1" arrivalPos="373.48" arrivalSpeed="23.19" duration="117.00" routeLength="2089.17" waitingTime="9.00" waitingCount="1" stopTime="0.00" timeLoss="27.85" rerouteNo="0" devices="tripinfo_w4-s1_0.19" vType="DEFAULT_VEHTYPE" speedFactor="0.85" vaporized=""/>
    <tripinfo id="w2-n6_0.0" depart="0.00" departLane="OrigionW2_0" departPos="5.10" departSpeed="0.00" departDelay="0.00" arrival="202.00" arrivalLane="DestinationN6_0" arrivalPos="784.86" arrivalSpeed="24.30" duration="202.00" routeLength="4002.77" waitingTime="26.00" waitingCount="1" stopTime="0.00" timeLoss="59.21" rerouteNo="0" devices="tripinfo_w2-n6_0.0" vType="DEFAULT_VEHTYPE" speedFactor="1.11" vaporized=""/>
    <tripinfo id="s1-w4_0.15" depart="67.00" departLane="OrigionS1_0" departPos="5.10" departSpeed="0.00" departDelay="-0.50" arrival="203.00" arrivalLane="DestinationW4_1" arrivalPos="242.47" arrivalSpeed="26.90" duration="136.00" routeLength="2089.17" waitingTime="27.00" waitingCount="1" stopTime="0.00" timeLoss="57.82" rerouteNo="0" devices="tripinfo_s1-w4_0.15" vType="DEFAULT_VEHTYPE" speedFactor="0.97" vaporized=""/>
    <tripinfo id="s1-w4_0.17" depart="76.00" departLane="OrigionS1_0" departPos="5.10" departSpeed="0.00" departDelay="-0.50" arrival="204.00" arrivalLane="DestinationW4_1" arrivalPos="242.47" arrivalSpeed="27.97" duration="128.00" routeLength="2089.17" waitingTime="27.00" waitingCount="1" stopTime="0.00" timeLoss="58.38" rerouteNo="0" devices="tripinfo_s1-w4_0.17" vType="DEFAULT_VEHTYPE" speedFactor="1.09" vaporized=""/>
    <tripinfo id="s1-w4_0.20" depart="90.00" departLane="OrigionS1_0" departPos="5.10" departSpeed="0.00" departDelay="0.00" arrival="205.00" arrivalLane="DestinationW4_1" arrivalPos="242.47" arrivalSpeed="27.02" duration="115.00" routeLength="2089.17" waitingTime="22.00" waitingCount="1" stopTime="0.00" timeLoss="48.57" rerouteNo="0" devices="tripinfo_s1-w4_0.20" vType="DEFAULT_VEHTYPE" speedFactor="1.13" vaporized=""/>
    <tripinfo id="s1-w4_0.10" depart="45.00" departLane="OrigionS1_0" departPos="5.10" departSpeed="0.00" departDelay="0.00" arrival="206.00" arrivalLane="DestinationW4_0" arrivalPos="242.47" arrivalSpeed="17.75" duration="161.00" routeLength="2089.17" waitingTime="28.00" waitingCount="1" stopTime="0.00" timeLoss="49.22" rerouteNo="0" devices="tripinfo_s1-w4_0.10" vType="DEFAULT_VEHTYPE" speedFactor="0.68" vaporized=""/>
    <tripinfo id="s1-w4_0.21" depart="94.00" departLane="OrigionS1_0" departPos="5.10" departSpeed="0.00" departDelay="-0.50" arrival="207.00" arrivalLane="DestinationW4_1" arrivalPos="242.47" arrivalSpeed="28.17" duration="113.00" routeLength="2089.17" waitingTime="17.00" waitingCount="1" stopTime="0.00" timeLoss="40.58" rerouteNo="0" devices="tripinfo_s1-w4_0.21" vType="DEFAULT_VEHTYPE" speedFactor="1.05" vaporized=""/>
    <tripinfo id="s1-w4_0.14" depart="63.00" departLane="OrigionS1_0" departPos="5.10" departSpeed="0.00" departDelay="0.00" arrival="207.00" arrivalLane="DestinationW4_0" arrivalPos="242.47" arrivalSpeed="20.41" duration="144.00" routeLength="2089.17" waitingTime="28.00" waitingCount="1" stopTime="0.00" timeLoss="70.66" rerouteNo="0" devices="tripinfo_s1-w4_0.14" vType="DEFAULT_VEHTYPE" speedFactor="1.03" vaporized=""/>
    <tripinfo id="s1-w4_0.19" depart="85.00" departLane="OrigionS1_0" departPos="5.10" departSpeed="0.00" departDelay="-0.50" arrival="208.00" arrivalLane="DestinationW4_1" arrivalPos="242.47" arrivalSpeed="27.14" duration="123.00" routeLength="2089.17" waitingTime="27.00" waitingCount="1" stopTime="0.00" timeLoss="47.66" rerouteNo="0" devices="tripinfo_s1-w4_0.19" vType="DEFAULT_VEHTYPE" speedFactor="1.00" vaporized=""/>
    <tripinfo id="s1-w4_0.16" depart="72.00" departLane="OrigionS1_0" departPos="5.10" departSpeed="0.00" departDelay="0.00" arrival="209.00" arrivalLane="DestinationW4_0" arrivalPos="242.47" arrivalSpeed="20.89" duration="137.00" routeLength="2089.17" waitingTime="25.00" waitingCount="1" stopTime="0.00" timeLoss="52.72" rerouteNo="0" devices="tripinfo_s1-w4_0.16" vType="DEFAULT_VEHTYPE" speedFactor="0.90" vaporized=""/>
    <tripinfo id="s4-n5_0.0" depart="0.00" departLane="OrigionS4_0" departPos="5.10" departSpeed="0.00" departDelay="0.00" arrival="209.00" arrivalLane="DestinationN5_0" arrivalPos="178.17" arrivalSpeed="11.42" duration="209.00" routeLength="3209.41" waitingTime="20.00" waitingCount="1" stopTime="0.00" timeLoss="52.05" rerouteNo="0" devices="tripinfo_s4-n5_0.0" vType="DEFAULT_VEHTYPE" speedFactor="0.91" vaporized=""/>
    <tripinfo id="s1-w4_0.18" depart="81.00" departLane="OrigionS1_0" departPos="5.10" departSpeed="0.00" departDelay="0.00" arrival="211.00" arrivalLane="DestinationW4_0" arrivalPos="242.47" arrivalSpeed="22.46" duration="130.00" routeLength="2089.17" waitingTime="19.00" waitingCount="1" stopTime="0.00" timeLoss="58.28" rerouteNo="0" devices="tripinfo_s1-w4_0.18" vType="DEFAULT_VEHTYPE" speedFactor="1.06" vaporized=""/>
    <tripinfo id="s4-n5_0.1" depart="4.00" departLane="OrigionS4_0" departPos="5.10" departSpeed="0.00" departDelay="-0.50" arrival="212.00" arrivalLane="DestinationN5_0" arrivalPos="178.17" arrivalSpeed="13.13" duration="208.00" routeLength="3209.41" waitingTime="19.00" waitingCount="1" stopTime="0.00" timeLoss="68.22" rerouteNo="0" devices="tripinfo_s4-n5_0.1" vType="DEFAULT_VEHTYPE" speedFactor="1.03" vaporized=""/>
    <tripinfo id="n2-s8_0.0" depart="0.00" departLane="OrigionN2_0" departPos="5.10" departSpeed="0.00" departDelay="0.00" arrival="220.00" arrivalLane="DestinationS8_0" arrivalPos="419.24" arrivalSpeed="19.89" duration="220.00" routeLength="3729.72" waitingTime="19.00" waitingCount="2" stopTime="0.00" timeLoss="48.85" rerouteNo="0" devices="tripinfo_n2-s8_0.0" vType="DEFAULT_VEHTYPE" speedFactor="0.91" vaporized=""/>
    <tripinfo id="n2-s8_0.1" depart="7.00" departLane="OrigionN2_0" departPos="5.10" departSpeed="0.00" departDelay="-0.50" arrival="221.00" arrivalLane="DestinationS8_0" arrivalPos="419.24" arrivalSpeed="21.77" duration="214.00" routeLength="3729.72" waitingTime="14.00" waitingCount="2" stopTime="0.00" timeLoss="68.67" rerouteNo="0" devices="tripinfo_n2-s8_0.1" vType="DEFAULT_VEHTYPE" speedFactor="1.07" vaporized=""/>
    <tripinfo id="n2-s8_0.2" depart="15.00" departLane="OrigionN2_0" departPos="5.10" departSpeed="0.00" departDelay="0.00" arrival="223.00" arrivalLane="DestinationS8_0" arrivalPos="419.24" arrivalSpeed="21.28" duration="208.00" routeLength="3729.72" waitingTime="8.00" waitingCount="2" stopTime="0.00" timeLoss="55.01" rerouteNo="0" devices="tripinfo_n2-s8_0.2" vType="DEFAULT_VEHTYPE" speedFactor="1.01" vaporized=""/>
    <tripinfo id="n2-s8_0.3" depart="22.00" departLane="OrigionN2_0" departPos="5.10" departSpeed="0.00" departDelay="-0.50" arrival="224.00" arrivalLane="DestinationS8_0" arrivalPos="419.24" arrivalSpeed="22.91" duration="202.00" routeLength="3729.72" waitingTime="8.00" waitingCount="2" stopTime="0.00" timeLoss="53.64" rerouteNo="0" devices="tripinfo_n2-s8_0.3" vType="DEFAULT_VEHTYPE" speedFactor="1.04" vaporized=""/>
    <tripinfo id="n2-s8_0.4" depart="30.00" departLane="OrigionN2_0" departPos="5.10" departSpeed="0.00" departDelay="0.00" arrival="226.00" arrivalLane="DestinationS8_0" arrivalPos="419.24" arrivalSpeed="23.38" duration="196.00" routeLength="3729.72" waitingTime="7.00" waitingCount="1" stopTime="0.00" timeLoss="54.02" rerouteNo="0" devices="tripinfo_n2-s8_0.4" vType="DEFAULT_VEHTYPE" speedFactor="1.09" vaporized=""/>
    <tripinfo id="e5-e1_0.2" depart="15.00" departLane="OrigionE5_0" departPos="5.10" departSpeed="0.00" departDelay="0.00" arrival="228.00" arrivalLane="DestinationE1_0" arrivalPos="250.56" arrivalSpeed="20.88" duration="213.00" routeLength="2162.05" waitingTime="67.00" waitingCount="3" stopTime="0.00" timeLoss="98.81" rerouteNo="0" devices="tripinfo_e5-e1_0.2" vType="DEFAULT_VEHTYPE" speedFactor="0.95" vaporized=""/>
    <tripinfo id="n1-s6_0.0" depart="0.00" departLane="OrigionN1_0" departPos="5.10" departSpeed="0.00" departDelay="0.00" arrival="229.00" arrivalLane="DestinationS6_1" arrivalPos="542.17" arrivalSpeed="29.72" duration="229.00" routeLength="5052.76" waitingTime="29.00" waitingCount="2" stopTime="0.00" timeLoss="61.49" rerouteNo="0" devices="tripinfo_n1-s6_0.0" vType="DEFAULT_VEHTYPE" speedFactor="1.09" vaporized=""/>
    <tripinfo id="e5-e1_0.3" depart="22.00" departLane="OrigionE5_0" departPos="5.10" departSpeed="0.00" departDelay="-0.50" arrival="230.00" arrivalLane="DestinationE1_0" arrivalPos="250.56" arrivalSpeed="20.27" duration="208.00" routeLength="2162.05" waitingTime="57.00" waitingCount="3" stopTime="0.00" timeLoss="93.39" rerouteNo="0" devices="tripinfo_e5-e1_0.3" vType="DEFAULT_VEHTYPE" speedFactor="0.95" vaporized=""/>
    <tripinfo id="e5-e1_0.4" depart="30.00" departLane="OrigionE5_0" departPos="5.10" departSpeed="0.00" departDelay="0.00" arrival="231.00" arrivalLane="DestinationE1_0" arrivalPos="250.56" arrivalSpeed="20.66" duration="201.00" routeLength="2162.05" waitingTime="52.00" waitingCount="3" stopTime="0.00" timeLoss="91.95" rerouteNo="0" devices="tripinfo_e5-e1_0.4" vType="DEFAULT_VEHTYPE" speedFactor="0.99" vaporized=""/>
    <tripinfo id="n4-w2_0.0" depart="0.00" departLane="OrigionN4_0" departPos="5.10" departSpeed="0.00" departDelay="0.00" arrival="232.00" arrivalLane="DestinationW2_0" arrivalPos="782.62" arrivalSpeed="22.97" duration="232.00" routeLength="3590.24" waitingTime="56.00" waitingCount="2" stopTime="0.00" timeLoss="88.89" rerouteNo="0" devices="tripinfo_n4-w2_0.0" vType="DEFAULT_VEHTYPE" speedFactor="1.08" vaporized=""/>
    <tripinfo id="e5-e1_0.5" depart="37.00" departLane="OrigionE5_0" departPos="5.10" departSpeed="0.00" departDelay="-0.50" arrival="234.00" arrivalLane="DestinationE1_0" arrivalPos="250.56" arrivalSpeed="19.30" duration="197.00" routeLength="2162.05" waitingTime="39.00" waitingCount="2" stopTime="0.00" timeLoss="79.70" rerouteNo="0" devices="tripinfo_e5-e1_0.5" vType="DEFAULT_VEHTYPE" speedFactor="0.92" vaporized=""/>
    <tripinfo id="e5-e1_0.6" depart="45.00" departLane="OrigionE5_0" departPos="5.10" departSpeed="0.00" departDelay="0.00" arrival="235.00" arrivalLane="DestinationE1_0" arrivalPos="250.56" arrivalSpeed="21.12" duration="190.00" routeLength="2162.05" waitingTime="37.00" waitingCount="2" stopTime="0.00" timeLoss="89.25" rerouteNo="0" devices="tripinfo_e5-e1_0.6" vType="DEFAULT_VEHTYPE" speedFactor="1.07" vaporized=""/>
    <tripinfo id="n4-w2_0.2" depart="9.00" departLane="OrigionN4_0" departPos="5.10" departSpeed="0.00" departDelay="0.00" arrival="236.00" arrivalLane="DestinationW2_0" arrivalPos="782.62" arrivalSpeed="21.61" duration="227.00" routeLength="3590.24" waitingTime="42.00" waitingCount="2" stopTime="0.00" timeLoss="73.65" rerouteNo="0" devices="tripinfo_n4-w2_0.2" vType="DEFAULT_VEHTYPE" speedFactor="1.00" vaporized=""/>
    <tripinfo id="e5-e1_0.7" depart="52.00" departLane="OrigionE5_0" departPos="5.10" departSpeed="0.00" departDelay="-0.50" arrival="237.00" arrivalLane="DestinationE1_0" arrivalPos="250.56" arrivalSpeed="21.77" duration="185.00" routeLength="2162.05" waitingTime="35.00" waitingCount="2" stopTime="0.00" timeLoss="77.93" rerouteNo="0" devices="tripinfo_e5-e1_0.7" vType="DEFAULT_VEHTYPE" speedFactor="1.01" vaporized=""/>
    <tripinfo id="e5-e1_0.8" depart="60.00" departLane="OrigionE5_0" departPos="5.10" departSpeed="0.00" departDelay="0.00" arrival="239.00" arrivalLane="DestinationE1_0" arrivalPos="250.56" arrivalSpeed="18.98" duration="179.00" routeLength="2162.05" waitingTime="28.00" waitingCount="2" stopTime="0.00" timeLoss="58.95" rerouteNo="0" devices="tripinfo_e5-e1_0.8" vType="DEFAULT_VEHTYPE" speedFactor="0.90" vaporized=""/>
    <tripinfo id="w7-s2_0.0" depart="0.00" departLane="OrigionW7_0" departPos="5.10" departSpeed="0.00" departDelay="0.00" arrival="241.00" arrivalLane="DestinationS2_0" arrivalPos="805.81" arrivalSpeed="13.83" duration="241.00" routeLength="3111.60" waitingTime="19.00" waitingCount="1" stopTime="0.00" timeLoss="47.19" rerouteNo="0" devices="tripinfo_w7-s2_0.0" vType="DEFAULT_VEHTYPE" speedFactor="1.04" vaporized=""/>
    <tripinfo id="w4-s1_0.21" depart="94.00" departLane="OrigionW4_0" departPos="5.10" departSpeed="0.00" departDelay="-0.50" arrival="246.00" arrivalLane="DestinationS1_0" arrivalPos="373.48" arrivalSpeed="28.19" duration="152.00" routeLength="2089.17" waitingTime="49.00" waitingCount="2" stopTime="0.00" timeLoss="78.20" rerouteNo="0" devices="tripinfo_w4-s1_0.21" vType="DEFAULT_VEHTYPE" speedFactor="1.02" vaporized=""/>
    <tripinfo id="w4-s1_0.20" depart="90.00" departLane="OrigionW4_0" departPos="5.10" departSpeed="0.00" departDelay="0.00" arrival="248.00" arrivalLane="DestinationS1_0" arrivalPos="373.48" arrivalSpeed="24.62" duration="158.00" routeLength="2089.17" waitingTime="50.00" waitingCount="2" stopTime="0.00" timeLoss="76.39" rerouteNo="0" devices="tripinfo_w4-s1_0.20" vType="DEFAULT_VEHTYPE" speedFactor="0.92" vaporized=""/>
    <tripinfo id="e3-s5_0.2" depart="18.00" departLane="OrigionE3_0" departPos="5.10" departSpeed="0.00" departDelay="3.00" arrival="248.00" arrivalLane="DestinationS5_0" arrivalPos="746.72" arrivalSpeed="20.54" duration="230.00" routeLength="3631.94" waitingTime="46.00" waitingCount="3" stopTime="0.00" timeLoss="85.94" rerouteNo="0" devices="tripinfo_e3-s5_0.2" vType="DEFAULT_VEHTYPE" speedFactor="0.96" vaporized=""/>
    <tripinfo id="s1-w4_0.23" depart="103.00" departLane="OrigionS1_0" departPos="5.10" departSpeed="0.00" departDelay="-0.50" arrival="250.00" arrivalLane="DestinationW4_1" arrivalPos="242.47" arrivalSpeed="28.70" duration="147.00" routeLength="2089.17" waitingTime="49.00" waitingCount="2" stopTime="0.00" timeLoss="77.12" rerouteNo="0" devices="tripinfo_s1-w4_0.23" vType="DEFAULT_VEHTYPE" speedFactor="1.08" vaporized=""/>