<?xml version="1.0" encoding="UTF-8"?>

<!-- generated on Wed Jan  9 15:06:58 2019 by Eclipse SUMO Version v1_0_1+0999-ba34606b5d
<configuration xmlns:xsi="http://www.w3.org/2001/XMLSchema-instance" xsi:noNamespaceSchemaLocation="http://sumo.dlr.de/xsd/sumoConfiguration.xsd">

    <input>
        <net-file value="Chj_final.net.xml"/>
        <route-files value="Chj_Demand5.rou.xml"/>
        <additional-files value="loops.xml"/>
    </input>

    <output>
        <queue-output value="HTSCqueue5.xml"/>
        <summary-output value="HTSCsummary5.xml"/>
        <tripinfo-output value="HTSCtripinfo5.xml"/>
    </output>

    <time>
        <begin value="0"/>
        <end value="3600"/>
    </time>

    <report>
        <xml-validation value="never"/>
        <duration-log.disable value="true"/>
        <no-step-log value="true"/>
    </report>

    <traci_server>
        <remote-port value="55603"/>
    </traci_server>

    <random_number>
        <seed value="67"/>
    </random_number>

</configuration>
-->

<tripinfos xmlns:xsi="http://www.w3.org/2001/XMLSchema-instance" xsi:noNamespaceSchemaLocation="http://sumo.dlr.de/xsd/tripinfo_file.xsd">
    <tripinfo id="s1-w4_0.0" depart="0.00" departLane="OrigionS1_0" departPos="5.10" departSpeed="0.00" departDelay="0.00" arrival="69.00" arrivalLane="DestinationW4_0" arrivalPos="242.47" arrivalSpeed="35.68" duration="69.00" routeLength="2089.17" waitingTime="0.00" waitingCount="0" stopTime="0.00" timeLoss="10.66" rerouteNo="0" devices="tripinfo_s1-w4_0.0" vType="DEFAULT_VEHTYPE" speedFactor="1.29" vaporized=""/>
    <tripinfo id="w4-s1_0.0" depart="0.00" departLane="OrigionW4_0" departPos="5.10" departSpeed="0.00" departDelay="0.00" arrival="123.00" arrivalLane="DestinationS1_0" arrivalPos="373.48" arrivalSpeed="31.59" duration="123.00" routeLength="2089.17" waitingTime="26.00" waitingCount="2" stopTime="0.00" timeLoss="57.00" rerouteNo="0" devices="tripinfo_w4-s1_0.0" vType="DEFAULT_VEHTYPE" speedFactor="1.15" vaporized=""/>
    <tripinfo id="w4-s1_0.1" depart="7.00" departLane="OrigionW4_0" departPos="5.10" departSpeed="0.00" departDelay="-0.20" arrival="125.00" arrivalLane="DestinationS1_0" arrivalPos="373.48" arrivalSpeed="30.97" duration="118.00" routeLength="2089.17" waitingTime="21.00" waitingCount="1" stopTime="0.00" timeLoss="52.39" rerouteNo="0" devices="tripinfo_w4-s1_0.1" vType="DEFAULT_VEHTYPE" speedFactor="1.16" vaporized=""/>
    <tripinfo id="w4-s1_0.4" depart="28.00" departLane="OrigionW4_0" departPos="5.10" departSpeed="0.00" departDelay="-0.80" arrival="129.00" arrivalLane="DestinationS1_1" arrivalPos="373.48" arrivalSpeed="28.39" duration="101.00" routeLength="2089.17" waitingTime="8.00" waitingCount="1" stopTime="0.00" timeLoss="29.76" rerouteNo="0" devices="tripinfo_w4-s1_0.4" vType="DEFAULT_VEHTYPE" speedFactor="1.06" vaporized=""/>
    <tripinfo id="w4-s1_0.2" depart="14.00" departLane="OrigionW4_0" departPos="5.10" departSpeed="0.00" departDelay="-0.40" arrival="130.00" arrivalLane="DestinationS1_0" arrivalPos="373.48" arrivalSpeed="24.63" duration="116.00" routeLength="2089.17" waitingTime="16.00" waitingCount="1" stopTime="0.00" timeLoss="33.84" rerouteNo="0" devices="tripinfo_w4-s1_0.2" vType="DEFAULT_VEHTYPE" speedFactor="0.92" vaporized=""/>
    <tripinfo id="s1-w4_0.2" depart="14.00" departLane="OrigionS1_0" departPos="5.10" departSpeed="0.00" departDelay="-0.40" arrival="132.00" arrivalLane="DestinationW4_1" arrivalPos="242.47" arrivalSpeed="27.11" duration="118.00" routeLength="2089.17" waitingTime="24.00" waitingCount="1" stopTime="0.00" timeLoss="42.60" rerouteNo="0" devices="tripinfo_s1-w4_0.2" vType="DEFAULT_VEHTYPE" speedFactor="1.00" vaporized=""/>
    <tripinfo id="s1-w4_0.1" depart="7.00" departLane="OrigionS1_0" departPos="5.10" departSpeed="0.00" departDelay="-0.20" arrival="133.00" arrivalLane="DestinationW4_0" arrivalPos="242.47" arrivalSpeed="26.63" duration="126.00" routeLength="2089.17" waitingTime="31.00" waitingCount="1" stopTime="0.00" timeLoss="49.56" rerouteNo="0" devices="tripinfo_s1-w4_0.1" vType="DEFAULT_VEHTYPE" speedFactor="0.99" vaporized=""/>
    <tripinfo id="w4-s1_0.3" depart="21.00" departLane="OrigionW4_0" departPos="5.10" departSpeed="0.00" departDelay="-0.60" arrival="133.00" arrivalLane="DestinationS1_0" arrivalPos="373.48" arrivalSpeed="23.09" duration="112.00" routeLength="2089.17" waitingTime="5.00" waitingCount="1" stopTime="0.00" timeLoss="24.45" rerouteNo="0" devices="tripinfo_w4-s1_0.3" vType="DEFAULT_VEHTYPE" speedFactor="0.86" vaporized=""/>
    <tripinfo id="s1-w4_0.3" depart="21.00" departLane="OrigionS1_0" departPos="5.10" departSpeed="0.00" departDelay="-0.60" arrival="135.00" arrivalLane="DestinationW4_1" arrivalPos="242.47" arrivalSpeed="25.47" duration="114.00" routeLength="2089.17" waitingTime="17.00" waitingCount="1" stopTime="0.00" timeLoss="34.18" rerouteNo="0" devices="tripinfo_s1-w4_0.3" vType="DEFAULT_VEHTYPE" speedFactor="0.95" vaporized=""/>
    <tripinfo id="s6-w5_0.0" depart="0.00" departLane="OrigionS6_0" departPos="5.10" departSpeed="0.00" departDelay="0.00" arrival="169.00" arrivalLane="DestinationW5_0" arrivalPos="259.12" arrivalSpeed="14.49" duration="169.00" routeLength="3323.55" waitingTime="16.00" waitingCount="1" stopTime="0.00" timeLoss="45.74" rerouteNo="0" devices="tripinfo_s6-w5_0.0" vType="DEFAULT_VEHTYPE" speedFactor="1.05" vaporized=""/>
    <tripinfo id="w4-s1_0.8" depart="57.00" departLane="OrigionW4_0" departPos="5.10" departSpeed="0.00" departDelay="-0.60" arrival="185.00" arrivalLane="DestinationS1_1" arrivalPos="373.48" arrivalSpeed="27.84" duration="128.00" routeLength="2089.17" waitingTime="25.00" waitingCount="2" stopTime="0.00" timeLoss="55.63" rerouteNo="0" devices="tripinfo_w4-s1_0.8" vType="DEFAULT_VEHTYPE" speedFactor="1.04" vaporized=""/>
    <tripinfo id="w4-s1_0.7" depart="50.00" departLane="OrigionW4_0" departPos="5.10" departSpeed="0.00" departDelay="-0.40" arrival="186.00" arrivalLane="DestinationS1_0" arrivalPos="373.48" arrivalSpeed="29.38" duration="136.00" routeLength="2089.17" waitingTime="33.00" waitingCount="2" stopTime="0.00" timeLoss="66.55" rerouteNo="0" devices="tripinfo_w4-s1_0.7" vType="DEFAULT_VEHTYPE" speedFactor="1.09" vaporized=""/>
    <tripinfo id="w4-s1_0.9" depart="64.00" departLane="OrigionW4_0" departPos="5.10" departSpeed="0.00" departDelay="-0.80" arrival="187.00" arrivalLane="DestinationS1_1" arrivalPos="373.48" arrivalSpeed="30.39" duration="123.00" routeLength="2089.17" waitingTime="17.00" waitingCount="2" stopTime="0.00" timeLoss="55.86" rerouteNo="0" devices="tripinfo_w4-s1_0.9" vType="DEFAULT_VEHTYPE" speedFactor="1.14" vaporized=""/>
    <tripinfo id="w4-s1_0.10" depart="72.00" departLane="OrigionW4_0" departPos="5.10" departSpeed="0.00" departDelay="0.00" arrival="188.00" arrivalLane="DestinationS1_1" arrivalPos="373.48" arrivalSpeed="32.20" duration="116.00" routeLength="2089.17" waitingTime="13.00" waitingCount="1" stopTime="0.00" timeLoss="54.45" rerouteNo="0" devices="tripinfo_w4-s1_0.10" vType="DEFAULT_VEHTYPE" speedFactor="1.23" vaporized=""/>
    <tripinfo id="w4-s1_0.11" depart="79.00" departLane="OrigionW4_0" departPos="5.10" departSpeed="0.00" departDelay="-0.20" arrival="189.00" arrivalLane="DestinationS1_1" arrivalPos="373.48" arrivalSpeed="32.19" duration="110.00" routeLength="2089.17" waitingTime="12.00" waitingCount="1" stopTime="0.00" timeLoss="45.30" rerouteNo="0" devices="tripinfo_w4-s1_0.11" vType="DEFAULT_VEHTYPE" speedFactor="1.17" vaporized=""/>
    <tripinfo id="w4-s1_0.5" depart="36.00" departLane="OrigionW4_0" departPos="5.10" departSpeed="0.00" departDelay="0.00" arrival="190.00" arrivalLane="DestinationS1_0" arrivalPos="373.48" arrivalSpeed="26.29" duration="154.00" routeLength="2089.17" waitingTime="44.00" waitingCount="2" stopTime="0.00" timeLoss="73.94" rerouteNo="0" devices="tripinfo_w4-s1_0.5" vType="DEFAULT_VEHTYPE" speedFactor="0.95" vaporized=""/>
    <tripinfo id="w4-s1_0.12" depart="86.00" departLane="OrigionW4_0" departPos="5.10" departSpeed="0.00" departDelay="-0.40" arrival="191.00" arrivalLane="DestinationS1_1" arrivalPos="373.48" arrivalSpeed="30.38" duration="105.00" routeLength="2089.17" waitingTime="10.00" waitingCount="1" stopTime="0.00" timeLoss="35.60" rerouteNo="0" devices="tripinfo_w4-s1_0.12" vType="DEFAULT_VEHTYPE" speedFactor="1.09" vaporized=""/>
    <tripinfo id="s1-w4_0.4" depart="28.00" departLane="OrigionS1_0" departPos="5.10" departSpeed="0.00" departDelay="-0.80" arrival="193.00" arrivalLane="DestinationW4_0" arrivalPos="242.47" arrivalSpeed="25.88" duration="165.00" routeLength="2089.17" waitingTime="60.00" waitingCount="2" stopTime="0.00" timeLoss="85.64" rerouteNo="0" devices="tripinfo_s1-w4_0.4" vType="DEFAULT_VEHTYPE" speedFactor="0.96" vaporized=""/>
    <tripinfo id="s1-w4_0.5" depart="36.00" departLane="OrigionS1_0" departPos="5.10" departSpeed="0.00" departDelay="0.00" arrival="194.00" arrivalLane="DestinationW4_0" arrivalPos="242.47" arrivalSpeed="25.47" duration="158.00" routeLength="2089.17" waitingTime="52.00" waitingCount="2" stopTime="0.00" timeLoss="76.21" rerouteNo="0" devices="tripinfo_s1-w4_0.5" vType="DEFAULT_VEHTYPE" speedFactor="0.93" vaporized=""/>
    <tripinfo id="s1-w4_0.6" depart="43.00" departLane="OrigionS1_0" departPos="5.10" departSpeed="0.00" departDelay="-0.20" arrival="195.00" arrivalLane="DestinationW4_1" arrivalPos="242.47" arrivalSpeed="28.76" duration="152.00" routeLength="2089.17" waitingTime="46.00" waitingCount="2" stopTime="0.00" timeLoss="79.25" rerouteNo="0" devices="tripinfo_s1-w4_0.6" vType="DEFAULT_VEHTYPE" speedFactor="1.04" vaporized=""/>
    <tripinfo id="s1-w4_0.7" depart="50.00" departLane="OrigionS1_0" departPos="5.10" departSpeed="0.00" departDelay="-0.40" arrival="195.00" arrivalLane="DestinationW4_0" arrivalPos="242.47" arrivalSpeed="26.59" duration="145.00" routeLength="2089.17" waitingTime="36.00" waitingCount="1" stopTime="0.00" timeLoss="66.76" rerouteNo="0" devices="tripinfo_s1-w4_0.7" vType="DEFAULT_VEHTYPE" speedFactor="0.96" vaporized=""/>
    <tripinfo id="s1-w4_0.8" depart="57.00" departLane="OrigionS1_0" departPos="5.10" departSpeed="0.00" departDelay="-0.60" arrival="196.00" arrivalLane="DestinationW4_1" arrivalPos="242.47" arrivalSpeed="28.76" duration="139.00" routeLength="2089.17" waitingTime="37.00" waitingCount="1" stopTime="0.00" timeLoss="66.11" rerouteNo="0" devices="tripinfo_s1-w4_0.8" vType="DEFAULT_VEHTYPE" speedFactor="1.04" vaporized=""/>
    <tripinfo id="w4-s1_0.6" depart="43.00" departLane="OrigionW4_0" departPos="5.10" departSpeed="0.00" departDelay="-0.20" arrival="196.00" arrivalLane="DestinationS1_0" arrivalPos="373.48" arrivalSpeed="21.86" duration="153.00" routeLength="2089.17" waitingTime="34.00" waitingCount="2" stopTime="0.00" timeLoss="58.82" rerouteNo="0" devices="tripinfo_w4-s1_0.6" vType="DEFAULT_VEHTYPE" speedFactor="0.80" vaporized=""/>
    <tripinfo id="s1-w4_0.9" depart="64.00" departLane="OrigionS1_0" departPos="5.10" departSpeed="0.00" departDelay="-0.80" arrival="197.00" arrivalLane="DestinationW4_0" arrivalPos="242.47" arrivalSpeed="27.48" duration="133.00" routeLength="2089.17" waitingTime="33.00" waitingCount="1" stopTime="0.00" timeLoss="59.54" rerouteNo="0" devices="tripinfo_s1-w4_0.9" vType="DEFAULT_VEHTYPE" speedFactor="1.03" vaporized=""/>
    <tripinfo id="s1-w4_0.10" depart="72.00" departLane="OrigionS1_0" departPos="5.10" departSpeed="0.00" departDelay="0.00" arrival="201.00" arrivalLane="DestinationW4_1" arrivalPos="242.47" arrivalSpeed="23.15" duration="129.00" routeLength="2089.17" waitingTime="21.00" waitingCount="1" stopTime="0.00" timeLoss="39.29" rerouteNo="0" devices="tripinfo_s1-w4_0.10" vType="DEFAULT_VEHTYPE" speedFactor="0.84" vaporized=""/>
    <tripinfo id="s1-w4_0.11" depart="79.00" departLane="OrigionS1_0" departPos="5.10" departSpeed="0.00" departDelay="-0.20" arrival="202.00" arrivalLane="DestinationW4_0" arrivalPos="242.47" arrivalSpeed="24.04" duration="123.00" routeLength="2089.17" waitingTime="18.00" waitingCount="1" stopTime="0.00" timeLoss="46.73" rerouteNo="0" devices="tripinfo_s1-w4_0.11" vType="DEFAULT_VEHTYPE" speedFactor="0.99" vaporized=""/>
    <tripinfo id="s1-w4_0.12" depart="86.00" departLane="OrigionS1_0" departPos="5.10" departSpeed="0.00" departDelay="-0.40" arrival="203.00" arrivalLane="DestinationW4_1" arrivalPos="242.47" arrivalSpeed="26.33" duration="117.00" routeLength="2089.17" waitingTime="20.00" waitingCount="1" stopTime="0.00" timeLoss="51.87" rerouteNo="0" devices="tripinfo_s1-w4_0.12" vType="DEFAULT_VEHTYPE" speedFactor="1.16" vaporized=""/>
    <tripinfo id="s4-n5_0.0" depart="0.00" departLane="OrigionS4_0" departPos="5.10" departSpeed="0.00" departDelay="0.00" arrival="203.00" arrivalLane="DestinationN5_0" arrivalPos="178.17" arrivalSpeed="14.10" duration="203.00" routeLength="3209.41" waitingTime="27.00" waitingCount="2" stopTime="0.00" timeLoss="67.67" rerouteNo="0" devices="tripinfo_s4-n5_0.0" vType="DEFAULT_VEHTYPE" speedFactor="1.05" vaporized=""/>
    <tripinfo id="n2-s8_0.0" depart="0.00" departLane="OrigionN2_0" departPos="5.10" departSpeed="0.00" departDelay="0.00" arrival="218.00" arrivalLane="DestinationS8_0" arrivalPos="419.24" arrivalSpeed="21.13" duration="218.00" routeLength="3729.72" waitingTime="23.00" waitingCount="2" stopTime="0.00" timeLoss="56.08" rerouteNo="0" devices="tripinfo_n2-s8_0.0" vType="DEFAULT_VEHTYPE" speedFactor="0.96" vaporized=""/>
    <tripinfo id="n2-s8_0.1" depart="12.00" departLane="OrigionN2_0" departPos="5.10" departSpeed="0.00" departDelay="0.00" arrival="219.00" arrivalLane="DestinationS8_0" arrivalPos="419.24" arrivalSpeed="20.54" duration="207.00" routeLength="3729.72" waitingTime="14.00" waitingCount="1" stopTime="0.00" timeLoss="48.84" rerouteNo="0" devices="tripinfo_n2-s8_0.1" vType="DEFAULT_VEHTYPE" speedFactor="0.98" vaporized=""/>
    <tripinfo id="n2-s8_0.2" depart="24.00" departLane="OrigionN2_0" departPos="5.10" departSpeed="0.00" departDelay="0.00" arrival="221.00" arrivalLane="DestinationS8_0" arrivalPos="419.24" arrivalSpeed="21.11" duration="197.00" routeLength="3729.72" waitingTime="12.00" waitingCount="1" stopTime="0.00" timeLoss="36.46" rerouteNo="0" devices="tripinfo_n2-s8_0.2" vType="DEFAULT_VEHTYPE" speedFactor="0.96" vaporized=""/>
    <tripinfo id="e5-e1_0.0" depart="0.00" departLane="OrigionE5_0" departPos="5.10" departSpeed="0.00" departDelay="0.00" arrival="229.00" arrivalLane="DestinationE1_0" arrivalPos="250.56" arrivalSpeed="17.16" duration="229.00" routeLength="2162.05" waitingTime="67.00" waitingCount="3" stopTime="0.00" timeLoss="97.79" rerouteNo="0" devices="tripinfo_e5-e1_0.0" vType="DEFAULT_VEHTYPE" speedFactor="0.82" vaporized=""/>
    <tripinfo id="e5-e1_0.1" depart="12.00" departLane="OrigionE5_0" departPos="5.10" departSpeed="0.00" departDelay="0.00" arrival="231.00" arrivalLane="DestinationE1_0" arrivalPos="250.56" arrivalSpeed="20.88" duration="219.00" routeLength="2162.05" waitingTime="61.00" waitingCount="3" stopTime="0.00" timeLoss="108.07" rerouteNo="0" devices="tripinfo_e5-e1_0.1" vType="DEFAULT_VEHTYPE" speedFactor="0.98" vaporized=""/>
    <tripinfo id="e5-e1_0.2" depart="24.00" departLane="OrigionE5_0" departPos="5.10" departSpeed="0.00" departDelay="0.00" arrival="232.00" arrivalLane="DestinationE1_0" arrivalPos="250.56" arrivalSpeed="20.73" duration="208.00" routeLength="2162.05" waitingTime="48.00" waitingCount="3" stopTime="0.00" timeLoss="92.60" rerouteNo="0" devices="tripinfo_e5-e1_0.2" vType="DEFAULT_VEHTYPE" speedFactor="0.94" vaporized=""/>
    <tripinfo id="n4-w2_0.0" depart="0.00" departLane="OrigionN4_0" departPos="5.10" departSpeed="0.00" departDelay="0.00" arrival="234.00" arrivalLane="DestinationW2_0" arrivalPos="782.62" arrivalSpeed="21.95" duration="234.00" routeLength="3590.24" waitingTime="53.00" waitingCount="2" stopTime="0.00" timeLoss="85.46" rerouteNo="0" devices="tripinfo_n4-w2_0.0" vType="DEFAULT_VEHTYPE" speedFactor="1.04" vaporized=""/>
    <tripinfo id="e5-e1_0.3" depart="36.00" departLane="OrigionE5_0" departPos="5.10" departSpeed="0.00" departDelay="0.00" arrival="235.00" arrivalLane="DestinationE1_0" arrivalPos="250.56" arrivalSpeed="16.42" duration="199.00" routeLength="2162.05" waitingTime="34.00" waitingCount="2" stopTime="0.00" timeLoss="63.18" rerouteNo="0" devices="tripinfo_e5-e1_0.3" vType="DEFAULT_VEHTYPE" speedFactor="0.80" vaporized=""/>
    <tripinfo id="e5-e1_0.4" depart="48.00" departLane="OrigionE5_0" departPos="5.10" departSpeed="0.00" departDelay="0.00" arrival="237.00" arrivalLane="DestinationE1_0" arrivalPos="250.56" arrivalSpeed="21.70" duration="189.00" routeLength="2162.05" waitingTime="34.00" waitingCount="2" stopTime="0.00" timeLoss="89.69" rerouteNo="0" devices="tripinfo_e5-e1_0.4" vType="DEFAULT_VEHTYPE" speedFactor="1.09" vaporized=""/>
    <tripinfo id="e5-e1_0.5" depart="60.00" departLane="OrigionE5_0" departPos="5.10" departSpeed="0.00" departDelay="0.00" arrival="238.00" arrivalLane="DestinationE1_0" arrivalPos="250.56" arrivalSpeed="19.74" duration="178.00" routeLength="2162.05" waitingTime="31.00" waitingCount="2" stopTime="0.00" timeLoss="75.33" rerouteNo="0" devices="tripinfo_e5-e1_0.5" vType="DEFAULT_VEHTYPE" speedFactor="1.05" vaporized=""/>
    <tripinfo id="w7-s2_0.0" depart="0.00" departLane="OrigionW7_0" departPos="5.10" departSpeed="0.00" departDelay="0.00" arrival="241.00" arrivalLane="DestinationS2_0" arrivalPos="805.81" arrivalSpeed="14.24" duration="241.00" routeLength="3111.60" waitingTime="20.00" waitingCount="1" stopTime="0.00" timeLoss="50.63" rerouteNo="0" devices="tripinfo_w7-s2_0.0" vType="DEFAULT_VEHTYPE" speedFactor="1.06" vaporized=""/>
    <tripinfo id="e3-s5_0.0" depart="3.00" departLane="OrigionE3_0" departPos="5.10" departSpeed="0.00" departDelay="3.00" arrival="242.00" arrivalLane="DestinationS5_0" arrivalPos="746.72" arrivalSpeed="23.48" duration="239.00" routeLength="3631.94" waitingTime="65.00" waitingCount="3" stopTime="0.00" timeLoss="112.54" rerouteNo="0" devices="tripinfo_e3-s5_0.0" vType="DEFAULT_VEHTYPE" speedFactor="1.09" vaporized=""/>
    <tripinfo id="w4-s1_0.14" depart="100.00" departLane="OrigionW4_0" departPos="5.10" departSpeed="0.00" departDelay="-0.80" arrival="247.00" arrivalLane="DestinationS1_1" arrivalPos="373.48" arrivalSpeed="27.59" duration="147.00" routeLength="2089.17" waitingTime="42.00" waitingCount="2" stopTime="0.00" timeLoss="73.28" rerouteNo="0" devices="tripinfo_w4-s1_0.14" vType="DEFAULT_VEHTYPE" speedFactor="1.03" vaporized=""/>
    <tripinfo id="w4-s1_0.13" depart="93.00" departLane="OrigionW4_0" departPos="5.10" departSpeed="0.00" departDelay="-0.60" arrival="247.00" arrivalLane="DestinationS1_0" arrivalPos="373.48" arrivalSpeed="26.26" duration="154.00" routeLength="2089.17" waitingTime="50.00" waitingCount="2" stopTime="0.00" timeLoss="76.80" rerouteNo="0" devices="tripinfo_w4-s1_0.13" vType="DEFAULT_VEHTYPE" speedFactor="0.98" vaporized=""/>
    <tripinfo id="w4-s1_0.16" depart="115.00" departLane="OrigionW4_0" departPos="5.10" departSpeed="0.00" departDelay="-0.20" arrival="248.00" arrivalLane="DestinationS1_1" arrivalPos="373.48" arrivalSpeed="29.45" duration="133.00" routeLength="2089.17" waitingTime="26.00" waitingCount="3" stopTime="0.00" timeLoss="63.43" rerouteNo="0" devices="tripinfo_w4-s1_0.16" vType="DEFAULT_VEHTYPE" speedFactor="1.09" vaporized=""/>
    <tripinfo id="w4-s1_0.18" depart="129.00" departLane="OrigionW4_0" departPos="5.10" departSpeed="0.00" departDelay="-0.60" arrival="248.00" arrivalLane="DestinationS1_0" arrivalPos="373.48" arrivalSpeed="29.06" duration="119.00" routeLength="2089.17" waitingTime="11.00" waitingCount="1" stopTime="0.00" timeLoss="48.07" rerouteNo="0" devices="tripinfo_w4-s1_0.18" vType="DEFAULT_VEHTYPE" speedFactor="1.07" vaporized=""/>
    <tripinfo id="e3-s5_0.2" depart="27.00" departLane="OrigionE3_0" departPos="5.10" departSpeed="0.00" departDelay="3.00" arrival="248.00" arrivalLane="DestinationS5_0" arrivalPos="746.72" arrivalSpeed="21.59" duration="221.00" routeLength="3631.94" waitingTime="39.00" waitingCount="3" stopTime="0.00" timeLoss="82.24" rerouteNo="0" devices="tripinfo_e3-s5_0.2" vType="DEFAULT_VEHTYPE" speedFactor="0.99" vaporized=""/>
    <tripinfo id="n3-s7_0.0" depart="0.00" departLane="OrigionN3_0" departPos="5.10" departSpeed="0.00" departDelay="0.00" arrival="249.00" arrivalLane="DestinationS7_0" arrivalPos="133.58" arrivalSpeed="34.43" duration="249.00" routeLength="5377.85" waitingTime="59.00" waitingCount="2" stopTime="0.00" timeLoss="92.15" rerouteNo="0" devices="tripinfo_n3-s7_0.0" vType="DEFAULT_VEHTYPE" speedFactor="1.24" vaporized=""/>
    <tripinfo id="w5-w9_0.0" depart="0.00" departLane="OrigionW5_0" departPos="5.10" departSpeed="0.00" departDelay="0.00" arrival="249.00" arrivalLane="DestinationW9_0" arrivalPos="225.67" arrivalSpeed="28.57" duration="249.00" routeLength="2764.84" waitingTime="36.00" waitingCount="1" stopTime="0.00" timeLoss="77.59" rerouteNo="0" devices="tripinfo_w5-w9_0.0" vType="DEFAULT_VEHTYPE" speedFactor="1.05" vaporized=""/>
    <tripinfo id="w4-s1_0.19" depart="136.00" departLane="OrigionW4_0" departPos="5.10" departSpeed="0.00" departDelay="-0.80" arrival="250.00" arrivalLane="DestinationS1_0" arrivalPos="373.48" arrivalSpeed="26.40" duration="114.00" routeLength="2089.17" waitingTime="11.00" waitingCount="1" stopTime="0.00" timeLoss="37.87" rerouteNo="0" devices="tripinfo_w4-s1_0.19" vType="DEFAULT_VEHTYPE" speedFactor="0.99" vaporized=""/>
    <tripinfo id="e3-s5_0.3" depart="39.00" departLane="OrigionE3_0" departPos="5.10" departSpeed="0.00" departDelay="3.00" arrival="250.00" arrivalLane="DestinationS5_0" arrivalPos="746.72" arrivalSpeed="23.72" duration="211.00" routeLength="3631.94" waitingTime="27.00" waitingCount="2" stopTime="0.00" timeLoss="83.47" rerouteNo="0" devices="tripinfo_e3-s5_0.3" vType="DEFAULT_VEHTYPE" speedFactor="1.09" vaporized=""/>
    <tripinfo id="e5-e1_0.6" depart="72.00" departLane="OrigionE5_0" departPos="5.10" departSpeed="0.00" departDelay="0.00" arrival="251.00" arrivalLane="DestinationE1_0" arrivalPos="250.56" arrivalSpeed="22.29" duration="179.00" routeLength="2162.05" waitingTime="48.00" waitingCount="2" stopTime="0.00" timeLoss="76.06" rerouteNo="0" devices="tripinfo_e5-e1_0.6" vType="DEFAULT_VEHTYPE" speedFactor="1.06" vaporized=""/>
    <tripinfo id="w4-s1_0.15" depart="108.00" departLane="OrigionW4_0" departPos="5.10" departSpeed="0.00" departDelay="0.00" arrival="253.00" arrivalLane="DestinationS1_1" arrivalPos="373.48" arrivalSpeed="24.51" duration="145.00" routeLength="2089.17" waitingTime="31.00" waitingCount="2" stopTime="0.00" timeLoss="62.30" rerouteNo="0" devices="tripinfo_w4-s1_0.15" vType="DEFAULT_VEHTYPE" speedFactor="0.92" vaporized=""/>
    <tripinfo id="e4-w8_0.0" depart="0.00" departLane="OrigionE4_0" departPos="5.10" departSpeed="0.00" departDelay="0.00" arrival="253.00" arrivalLane="DestinationW8_0" arrivalPos="167.98" arrivalSpeed="20.44" duration="253.00" routeLength="3459.08" waitingTime="49.00" waitingCount="3" stopTime="0.00" timeLoss="92.55" rerouteNo="0" devices="tripinfo_e4-w8_0.0" vType="DEFAULT_VEHTYPE" speedFactor="0.97" vaporized=""/>
    <tripinfo id="s1-w4_0.14" depart="100.00" departLane="OrigionS1_0" departPos="5.10" departSpeed="0.00" departDelay="-0.80" arrival="254.00" arrivalLane="DestinationW4_1" arrivalPos="242.47" arrivalSpeed="24.00" duration="154.00" routeLength="2089.17" waitingTime="48.00" waitingCount="2" stopTime="0.00" timeLoss="70.70" rerouteNo="0" devices="tripinfo_s1-w4_0.14" vType="DEFAULT_VEHTYPE" speedFactor="0.90" vaporized=""/>
    <tripinfo id="w4-s1_0.17" depart="122.00" departLane="OrigionW4_0" departPos="5.10" departSpeed="0.00" departDelay="-0.40" arrival="254.00" arrivalLane="DestinationS1_1" arrivalPos="373.48" arrivalSpeed="27.31" duration="132.00" routeLength="2089.17" waitingTime="21.00" waitingCount="2" stopTime="0.00" timeLoss="56.64" rerouteNo="0" devices="tripinfo_w4-s1_0.17" vType="DEFAULT_VEHTYPE" speedFactor="1.00" vaporized=""/>
    <tripinfo id="w4-s1_0.20" depart="144.00" departLane="OrigionW4_0" departPos="5.10" departSpeed="0.00" departDelay="0.00" arrival="254.00" arrivalLane="DestinationS1_0" arrivalPos="373.48" arrivalSpeed="26.72" duration="110.00" routeLength="2089.17" waitingTime="10.00" waitingCount="2" stopTime="0.00" timeLoss="38.91" rerouteNo="0" devices="tripinfo_w4-s1_0.20" vType="DEFAULT_VEHTYPE" speedFactor="1.07" vaporized=""/>
    <tripinfo id="e3-s5_0.1" depart="15.00" departLane="OrigionE3_0" departPos="5.10" departSpeed="0.00" departDelay="3.00" arrival="254.00" arrivalLane="DestinationS5_0" arrivalPos="746.72" arrivalSpeed="19.95" duration="239.00" routeLength="3631.94" waitingTime="52.00" waitingCount="3" stopTime="0.00" timeLoss="93.28" rerouteNo="0" devices="tripinfo_e3-s5_0.1" vType="DEFAULT_VEHTYPE" speedFactor="0.95" vaporized=""/>
    <tripinfo id="s1-w4_0.13" depart="93.00" departLane="OrigionS1_0" departPos="5.10" departSpeed="0.00" departDelay="-0.60" arrival="255.00" arrivalLane="DestinationW4_0" arrivalPos="242.47" arrivalSpeed="26.63" duration="162.00" routeLength="2089.17" waitingTime="56.00" waitingCount="2" stopTime="0.00" timeLoss="94.71" rerouteNo="0" devices="tripinfo_s1-w4_0.13" vType="DEFAULT_VEHTYPE" speedFactor="1.13" vaporized=""/>
    <tripinfo id="s1-w4_0.18" depart="129.00" departLane="OrigionS1_0" departPos="5.10" departSpeed="0.00" departDelay="-0.60" arrival="256.00" arrivalLane="DestinationW4_0" arrivalPos="242.47" arrivalSpeed="24.85" duration="127.00" routeLength="2089.17" waitingTime="31.00" waitingCount="1" stopTime="0.00" timeLoss="58.81" rerouteNo="0" devices="tripinfo_s1-w4_0.18" vType="DEFAULT_VEHTYPE" speedFactor="1.10" vaporized=""/>
    <tripinfo id="s1-w4_0.15" depart="108.00" departLane="OrigionS1_0" departPos="5.10" departSpeed="0.00" departDelay="0.00" arrival="256.00" arrivalLane="DestinationW4_1" arrivalPos="242.47" arrivalSpeed="24.90" duration="148.00" routeLength="2089.17" waitingTime="39.00" waitingCount="2" stopTime="0.00" timeLoss="65.82" rerouteNo="0" devices="tripinfo_s1-w4_0.15" vType="DEFAULT_VEHTYPE" speedFactor="0.92" vaporized=""/>
    <tripinfo id="s1-w4_0.16" depart="115.00" departLane="OrigionS1_0" departPos="5.10" departSpeed="0.00" departDelay="-0.20" arrival="257.00" arrivalLane="DestinationW4_1" arrivalPos="242.47" arrivalSpeed="26.51" duration="142.00" routeLength="2089.17" waitingTime="36.00" waitingCount="1" stopTime="0.00" timeLoss="69.53" rerouteNo="0" devices="tripinfo_s1-w4_0.16" vType="DEFAULT_VEHTYPE" speedFactor="1.04" vaporized=""/>
    <tripinfo id="s1-w4_0.17" depart="122.00" departLane="OrigionS1_0" departPos="5.10" departSpeed="0.00" departDelay="-0.40" arrival="258.00" arrivalLane="DestinationW4_0" arrivalPos="242.47" arrivalSpeed="26.21" duration="136.00" routeLength="2089.17" waitingTime="32.00" waitingCount="2" stopTime="0.00" timeLoss="68.73" rerouteNo="0" devices="tripinfo_s1-w4_0.17" vType="DEFAULT_VEHTYPE" speedFactor="1.13" vaporized=""/>
    <tripinfo id="s1-w4_0.19" depart="136.00" departLane="OrigionS1_0" departPos="5.10" departSpeed="0.00" departDelay="-0.80" arrival="259.00" arrivalLane="DestinationW4_1" arrivalPos="242.47" arrivalSpeed="28.22" duration="123.00" routeLength="2089.17" waitingTime="26.00" waitingCount="1" stopTime="0.00" timeLoss="48.71" rerouteNo="0" devices="tripinfo_s1-w4_0.19" vType="DEFAULT_VEHTYPE" speedFactor="1.02" vaporized=""/>
    <tripinfo id="s1-w4_0.20" depart="144.00" departLane="OrigionS1_0" departPos="5.10" departSpeed="0.00" departDelay="0.00" arrival="260.00" arrivalLane="DestinationW4_0" arrivalPos="242.47" arrivalSpeed="28.10" duration="116.00" routeLength="2089.17" waitingTime="18.00" waitingCount="2" stopTime="0.00" timeLoss="46.18" rerouteNo="0" devices="tripinfo_s1-w4_0.20" vType="DEFAULT_VEHTYPE" speedFactor="1.09" vaporized=""/>
    <tripinfo id="s1-w4_0.21" depart="151.00" departLane="OrigionS1_0" departPos="5.10" departSpeed="0.00" departDelay="-0.20" arrival="261.00" arrivalLane="DestinationW4_1" arrivalPos="242.47" arrivalSpeed="30.60" duration="110.00" routeLength="2089.17" waitingTime="20.00" waitingCount="1" stopTime="0.00" timeLoss="41.45" rerouteNo="0" devices="tripinfo_s1-w4_0.21" vType="DEFAULT_VEHTYPE" speedFactor="1.11" vaporized=""/>
    <tripinfo id="s1-w4_0.22" depart="158.00" departLane="OrigionS1_0" departPos="5.10" departSpeed="0.00" departDelay="-0.40" arrival="262.00" arrivalLane="DestinationW4_0" arrivalPos="242.47" arrivalSpeed="28.63" duration="104.00" routeLength="2089.17" waitingTime="14.00" waitingCount="1" stopTime="0.00" timeLoss="32.57" rerouteNo="0" devices="tripinfo_s1-w4_0.22" vType="DEFAULT_VEHTYPE" speedFactor="1.05" vaporized=""/>
    <tripinfo id="s1-w4_0.24" depart="172.00" departLane="OrigionS1_0" departPos="5.10" departSpeed="0.00" departDelay="-0.80" arrival="264.00" arrivalLane="DestinationW4_0" arrivalPos="242.47" arrivalSpeed="27.81" duration="92.00" routeLength="2089.17" waitingTime="0.00" waitingCount="0" stopTime="0.00" timeLoss="19.30" rerouteNo="0" devices="tripinfo_s1-w4_0.24" vType="DEFAULT_VEHTYPE" speedFactor="1.04" vaporized=""/>
    <tripinfo id="s1-w4_0.23" depart="165.00" departLane="OrigionS1_0" departPos="5.10" departSpeed="0.00" departDelay="-0.60" arrival="264.00" arrivalLane="DestinationW4_1" arrivalPos="242.47" arrivalSpeed="28.68" duration="99.00" routeLength="2089.17" waitingTime="7.00" waitingCount="1" stopTime="0.00" timeLoss="27.25" rerouteNo="0" devices="tripinfo_s1-w4_0.23" vType="DEFAULT_VEHTYPE" speedFactor="1.06" vaporized=""/>