<?xml version="1.0" encoding="UTF-8"?>

<!-- generated on Wed Jan  9 15:09:32 2019 by Eclipse SUMO Version v1_0_1+0999-ba34606b5d
<configuration xmlns:xsi="http://www.w3.org/2001/XMLSchema-instance" xsi:noNamespaceSchemaLocation="http://sumo.dlr.de/xsd/sumoConfiguration.xsd">

    <input>
        <net-file value="Chj_final.net.xml"/>
        <route-files value="Chj_Demand9.rou.xml"/>
        <additional-files value="loops.xml"/>
    </input>

    <output>
        <queue-output value="HTSCqueue9.xml"/>
        <summary-output value="HTSCsummary9.xml"/>
        <tripinfo-output value="HTSCtripinfo9.xml"/>
    </output>

    <time>
        <begin value="0"/>
        <end value="3600"/>
    </time>

    <report>
        <xml-validation value="never"/>
        <duration-log.disable value="true"/>
        <no-step-log value="true"/>
    </report>

    <traci_server>
        <remote-port value="42060"/>
    </traci_server>

    <random_number>
        <seed value="47"/>
    </random_number>

</configuration>
-->

<tripinfos xmlns:xsi="http://www.w3.org/2001/XMLSchema-instance" xsi:noNamespaceSchemaLocation="http://sumo.dlr.de/xsd/tripinfo_file.xsd">
    <tripinfo id="s1-w4_0.0" depart="0.00" departLane="OrigionS1_0" departPos="5.10" departSpeed="0.00" departDelay="0.00" arrival="73.00" arrivalLane="DestinationW4_0" arrivalPos="242.47" arrivalSpeed="32.69" duration="73.00" routeLength="2089.17" waitingTime="0.00" waitingCount="0" stopTime="0.00" timeLoss="9.78" rerouteNo="0" devices="tripinfo_s1-w4_0.0" vType="DEFAULT_VEHTYPE" speedFactor="1.21" vaporized=""/>
    <tripinfo id="w4-s1_0.4" depart="16.00" departLane="OrigionW4_0" departPos="5.10" departSpeed="0.00" departDelay="0.00" arrival="126.00" arrivalLane="DestinationS1_1" arrivalPos="373.48" arrivalSpeed="31.25" duration="110.00" routeLength="2089.17" waitingTime="15.00" waitingCount="1" stopTime="0.00" timeLoss="43.13" rerouteNo="0" devices="tripinfo_w4-s1_0.4" vType="DEFAULT_VEHTYPE" speedFactor="1.13" vaporized=""/>
    <tripinfo id="w4-s1_0.6" depart="24.00" departLane="OrigionW4_0" departPos="5.10" departSpeed="0.00" departDelay="0.00" arrival="128.00" arrivalLane="DestinationS1_1" arrivalPos="373.48" arrivalSpeed="30.71" duration="104.00" routeLength="2089.17" waitingTime="12.00" waitingCount="1" stopTime="0.00" timeLoss="35.71" rerouteNo="0" devices="tripinfo_w4-s1_0.6" vType="DEFAULT_VEHTYPE" speedFactor="1.11" vaporized=""/>
    <tripinfo id="w4-s1_0.1" depart="4.00" departLane="OrigionW4_0" departPos="5.10" departSpeed="0.00" departDelay="0.00" arrival="129.00" arrivalLane="DestinationS1_0" arrivalPos="373.48" arrivalSpeed="24.52" duration="125.00" routeLength="2089.17" waitingTime="17.00" waitingCount="1" stopTime="0.00" timeLoss="40.76" rerouteNo="0" devices="tripinfo_w4-s1_0.1" vType="DEFAULT_VEHTYPE" speedFactor="0.90" vaporized=""/>
    <tripinfo id="s1-w4_0.2" depart="8.00" departLane="OrigionS1_0" departPos="5.10" departSpeed="0.00" departDelay="0.00" arrival="130.00" arrivalLane="DestinationW4_1" arrivalPos="242.47" arrivalSpeed="29.83" duration="122.00" routeLength="2089.17" waitingTime="34.00" waitingCount="1" stopTime="0.00" timeLoss="52.89" rerouteNo="0" devices="tripinfo_s1-w4_0.2" vType="DEFAULT_VEHTYPE" speedFactor="1.09" vaporized=""/>
    <tripinfo id="w4-s1_0.2" depart="8.00" departLane="OrigionW4_0" departPos="5.10" departSpeed="0.00" departDelay="0.00" arrival="130.00" arrivalLane="DestinationS1_0" arrivalPos="373.48" arrivalSpeed="26.37" duration="122.00" routeLength="2089.17" waitingTime="22.00" waitingCount="1" stopTime="0.00" timeLoss="55.20" rerouteNo="0" devices="tripinfo_w4-s1_0.2" vType="DEFAULT_VEHTYPE" speedFactor="1.13" vaporized=""/>
    <tripinfo id="s1-w4_0.1" depart="4.00" departLane="OrigionS1_0" departPos="5.10" departSpeed="0.00" departDelay="0.00" arrival="131.00" arrivalLane="DestinationW4_0" arrivalPos="242.47" arrivalSpeed="27.78" duration="127.00" routeLength="2089.17" waitingTime="36.00" waitingCount="1" stopTime="0.00" timeLoss="52.56" rerouteNo="0" devices="tripinfo_s1-w4_0.1" vType="DEFAULT_VEHTYPE" speedFactor="1.01" vaporized=""/>
    <tripinfo id="e5-e1_0.0" depart="0.00" departLane="OrigionE5_0" departPos="5.10" departSpeed="0.00" departDelay="0.00" arrival="131.00" arrivalLane="DestinationE1_0" arrivalPos="250.56" arrivalSpeed="22.48" duration="131.00" routeLength="2162.05" waitingTime="8.00" waitingCount="1" stopTime="0.00" timeLoss="26.68" rerouteNo="0" devices="tripinfo_e5-e1_0.0" vType="DEFAULT_VEHTYPE" speedFactor="1.04" vaporized=""/>
    <tripinfo id="s1-w4_0.3" depart="12.00" departLane="OrigionS1_0" departPos="5.10" departSpeed="0.00" departDelay="0.00" arrival="132.00" arrivalLane="DestinationW4_1" arrivalPos="242.47" arrivalSpeed="30.75" duration="120.00" routeLength="2089.17" waitingTime="30.00" waitingCount="1" stopTime="0.00" timeLoss="51.81" rerouteNo="0" devices="tripinfo_s1-w4_0.3" vType="DEFAULT_VEHTYPE" speedFactor="1.11" vaporized=""/>
    <tripinfo id="w4-s1_0.0" depart="0.00" departLane="OrigionW4_0" departPos="5.10" departSpeed="0.00" departDelay="0.00" arrival="133.00" arrivalLane="DestinationS1_0" arrivalPos="373.48" arrivalSpeed="23.23" duration="133.00" routeLength="2089.17" waitingTime="16.00" waitingCount="2" stopTime="0.00" timeLoss="44.26" rerouteNo="0" devices="tripinfo_w4-s1_0.0" vType="DEFAULT_VEHTYPE" speedFactor="0.85" vaporized=""/>
    <tripinfo id="w4-s1_0.5" depart="20.00" departLane="OrigionW4_0" departPos="5.10" departSpeed="0.00" departDelay="0.00" arrival="133.00" arrivalLane="DestinationS1_1" arrivalPos="373.48" arrivalSpeed="25.45" duration="113.00" routeLength="2089.17" waitingTime="13.00" waitingCount="1" stopTime="0.00" timeLoss="31.70" rerouteNo="0" devices="tripinfo_w4-s1_0.5" vType="DEFAULT_VEHTYPE" speedFactor="0.93" vaporized=""/>
    <tripinfo id="s1-w4_0.4" depart="16.00" departLane="OrigionS1_0" departPos="5.10" departSpeed="0.00" departDelay="0.00" arrival="134.00" arrivalLane="DestinationW4_1" arrivalPos="242.47" arrivalSpeed="27.91" duration="118.00" routeLength="2089.17" waitingTime="25.00" waitingCount="1" stopTime="0.00" timeLoss="42.73" rerouteNo="0" devices="tripinfo_s1-w4_0.4" vType="DEFAULT_VEHTYPE" speedFactor="1.01" vaporized=""/>
    <tripinfo id="s1-w4_0.6" depart="24.00" departLane="OrigionS1_0" departPos="5.10" departSpeed="0.00" departDelay="0.00" arrival="135.00" arrivalLane="DestinationW4_0" arrivalPos="242.47" arrivalSpeed="30.06" duration="111.00" routeLength="2089.17" waitingTime="21.00" waitingCount="1" stopTime="0.00" timeLoss="41.38" rerouteNo="0" devices="tripinfo_s1-w4_0.6" vType="DEFAULT_VEHTYPE" speedFactor="1.09" vaporized=""/>
    <tripinfo id="w4-s1_0.3" depart="12.00" departLane="OrigionW4_0" departPos="5.10" departSpeed="0.00" departDelay="0.00" arrival="135.00" arrivalLane="DestinationS1_0" arrivalPos="373.48" arrivalSpeed="22.76" duration="123.00" routeLength="2089.17" waitingTime="14.00" waitingCount="1" stopTime="0.00" timeLoss="32.91" rerouteNo="0" devices="tripinfo_w4-s1_0.3" vType="DEFAULT_VEHTYPE" speedFactor="0.84" vaporized=""/>
    <tripinfo id="s1-w4_0.5" depart="20.00" departLane="OrigionS1_0" departPos="5.10" departSpeed="0.00" departDelay="0.00" arrival="136.00" arrivalLane="DestinationW4_1" arrivalPos="242.47" arrivalSpeed="28.80" duration="116.00" routeLength="2089.17" waitingTime="23.00" waitingCount="1" stopTime="0.00" timeLoss="42.97" rerouteNo="0" devices="tripinfo_s1-w4_0.5" vType="DEFAULT_VEHTYPE" speedFactor="1.04" vaporized=""/>
    <tripinfo id="s1-w4_0.10" depart="40.00" departLane="OrigionS1_0" departPos="5.10" departSpeed="0.00" departDelay="0.00" arrival="140.00" arrivalLane="DestinationW4_1" arrivalPos="242.47" arrivalSpeed="29.64" duration="100.00" routeLength="2089.17" waitingTime="12.00" waitingCount="1" stopTime="0.00" timeLoss="31.84" rerouteNo="0" devices="tripinfo_s1-w4_0.10" vType="DEFAULT_VEHTYPE" speedFactor="1.11" vaporized=""/>
    <tripinfo id="s1-w4_0.7" depart="28.00" departLane="OrigionS1_0" departPos="5.10" departSpeed="0.00" departDelay="0.00" arrival="147.00" arrivalLane="DestinationW4_0" arrivalPos="242.47" arrivalSpeed="25.59" duration="119.00" routeLength="2089.17" waitingTime="22.00" waitingCount="1" stopTime="0.00" timeLoss="38.97" rerouteNo="0" devices="tripinfo_s1-w4_0.7" vType="DEFAULT_VEHTYPE" speedFactor="0.95" vaporized=""/>
    <tripinfo id="e5-e1_0.1" depart="6.00" departLane="OrigionE5_0" departPos="5.10" departSpeed="0.00" departDelay="-0.67" arrival="167.00" arrivalLane="DestinationE1_0" arrivalPos="250.56" arrivalSpeed="22.93" duration="161.00" routeLength="2162.05" waitingTime="33.00" waitingCount="2" stopTime="0.00" timeLoss="59.61" rerouteNo="0" devices="tripinfo_e5-e1_0.1" vType="DEFAULT_VEHTYPE" speedFactor="1.07" vaporized=""/>
    <tripinfo id="w4-s1_0.11" depart="44.00" departLane="OrigionW4_0" departPos="5.10" departSpeed="0.00" departDelay="0.00" arrival="186.00" arrivalLane="DestinationS1_1" arrivalPos="373.48" arrivalSpeed="30.78" duration="142.00" routeLength="2089.17" waitingTime="39.00" waitingCount="2" stopTime="0.00" timeLoss="75.75" rerouteNo="0" devices="tripinfo_w4-s1_0.11" vType="DEFAULT_VEHTYPE" speedFactor="1.15" vaporized=""/>
    <tripinfo id="w4-s1_0.10" depart="40.00" departLane="OrigionW4_0" departPos="5.10" departSpeed="0.00" departDelay="0.00" arrival="186.00" arrivalLane="DestinationS1_0" arrivalPos="373.48" arrivalSpeed="28.20" duration="146.00" routeLength="2089.17" waitingTime="40.00" waitingCount="2" stopTime="0.00" timeLoss="72.21" rerouteNo="0" devices="tripinfo_w4-s1_0.10" vType="DEFAULT_VEHTYPE" speedFactor="1.03" vaporized=""/>
    <tripinfo id="w4-s1_0.9" depart="36.00" departLane="OrigionW4_0" departPos="5.10" departSpeed="0.00" departDelay="0.00" arrival="187.00" arrivalLane="DestinationS1_0" arrivalPos="373.48" arrivalSpeed="27.44" duration="151.00" routeLength="2089.17" waitingTime="45.00" waitingCount="2" stopTime="0.00" timeLoss="76.13" rerouteNo="0" devices="tripinfo_w4-s1_0.9" vType="DEFAULT_VEHTYPE" speedFactor="1.01" vaporized=""/>
    <tripinfo id="w4-s1_0.13" depart="52.00" departLane="OrigionW4_0" departPos="5.10" departSpeed="0.00" departDelay="0.00" arrival="189.00" arrivalLane="DestinationS1_1" arrivalPos="373.48" arrivalSpeed="28.59" duration="137.00" routeLength="2089.17" waitingTime="31.00" waitingCount="2" stopTime="0.00" timeLoss="65.65" rerouteNo="0" devices="tripinfo_w4-s1_0.13" vType="DEFAULT_VEHTYPE" speedFactor="1.06" vaporized=""/>
    <tripinfo id="e5-e1_0.2" depart="13.00" departLane="OrigionE5_0" departPos="5.10" departSpeed="0.00" departDelay="-0.33" arrival="189.00" arrivalLane="DestinationE1_0" arrivalPos="250.56" arrivalSpeed="23.88" duration="176.00" routeLength="2162.05" waitingTime="45.00" waitingCount="2" stopTime="0.00" timeLoss="76.38" rerouteNo="0" devices="tripinfo_e5-e1_0.2" vType="DEFAULT_VEHTYPE" speedFactor="1.09" vaporized=""/>
    <tripinfo id="w4-s1_0.7" depart="28.00" departLane="OrigionW4_0" departPos="5.10" departSpeed="0.00" departDelay="0.00" arrival="192.00" arrivalLane="DestinationS1_0" arrivalPos="373.48" arrivalSpeed="23.43" duration="164.00" routeLength="2089.17" waitingTime="49.00" waitingCount="2" stopTime="0.00" timeLoss="78.20" rerouteNo="0" devices="tripinfo_w4-s1_0.7" vType="DEFAULT_VEHTYPE" speedFactor="0.88" vaporized=""/>
    <tripinfo id="s1-w4_0.9" depart="36.00" departLane="OrigionS1_0" departPos="5.10" departSpeed="0.00" departDelay="0.00" arrival="194.00" arrivalLane="DestinationW4_0" arrivalPos="242.47" arrivalSpeed="25.09" duration="158.00" routeLength="2089.17" waitingTime="45.00" waitingCount="2" stopTime="0.00" timeLoss="75.61" rerouteNo="0" devices="tripinfo_s1-w4_0.9" vType="DEFAULT_VEHTYPE" speedFactor="0.92" vaporized=""/>
    <tripinfo id="w4-s1_0.14" depart="56.00" departLane="OrigionW4_0" departPos="5.10" departSpeed="0.00" departDelay="0.00" arrival="194.00" arrivalLane="DestinationS1_1" arrivalPos="373.48" arrivalSpeed="25.56" duration="138.00" routeLength="2089.17" waitingTime="20.00" waitingCount="2" stopTime="0.00" timeLoss="56.09" rerouteNo="0" devices="tripinfo_w4-s1_0.14" vType="DEFAULT_VEHTYPE" speedFactor="0.93" vaporized=""/>
    <tripinfo id="w4-s1_0.8" depart="32.00" departLane="OrigionW4_0" departPos="5.10" departSpeed="0.00" departDelay="0.00" arrival="194.00" arrivalLane="DestinationS1_0" arrivalPos="373.48" arrivalSpeed="22.98" duration="162.00" routeLength="2089.17" waitingTime="46.00" waitingCount="2" stopTime="0.00" timeLoss="74.08" rerouteNo="0" devices="tripinfo_w4-s1_0.8" vType="DEFAULT_VEHTYPE" speedFactor="0.86" vaporized=""/>
    <tripinfo id="w4-s1_0.15" depart="60.00" departLane="OrigionW4_0" departPos="5.10" departSpeed="0.00" departDelay="0.00" arrival="195.00" arrivalLane="DestinationS1_1" arrivalPos="373.48" arrivalSpeed="26.78" duration="135.00" routeLength="2089.17" waitingTime="20.00" waitingCount="2" stopTime="0.00" timeLoss="58.03" rerouteNo="0" devices="tripinfo_w4-s1_0.15" vType="DEFAULT_VEHTYPE" speedFactor="0.98" vaporized=""/>
    <tripinfo id="s1-w4_0.11" depart="44.00" departLane="OrigionS1_0" departPos="5.10" departSpeed="0.00" departDelay="0.00" arrival="196.00" arrivalLane="DestinationW4_1" arrivalPos="242.47" arrivalSpeed="24.65" duration="152.00" routeLength="2089.17" waitingTime="38.00" waitingCount="2" stopTime="0.00" timeLoss="68.59" rerouteNo="0" devices="tripinfo_s1-w4_0.11" vType="DEFAULT_VEHTYPE" speedFactor="0.91" vaporized=""/>
    <tripinfo id="w4-s1_0.12" depart="48.00" departLane="OrigionW4_0" departPos="5.10" departSpeed="0.00" departDelay="0.00" arrival="196.00" arrivalLane="DestinationS1_0" arrivalPos="373.48" arrivalSpeed="25.40" duration="148.00" routeLength="2089.17" waitingTime="28.00" waitingCount="2" stopTime="0.00" timeLoss="66.16" rerouteNo="0" devices="tripinfo_w4-s1_0.12" vType="DEFAULT_VEHTYPE" speedFactor="0.93" vaporized=""/>
    <tripinfo id="s1-w4_0.8" depart="32.00" departLane="OrigionS1_0" departPos="5.10" departSpeed="0.00" departDelay="0.00" arrival="197.00" arrivalLane="DestinationW4_0" arrivalPos="242.47" arrivalSpeed="23.69" duration="165.00" routeLength="2089.17" waitingTime="49.00" waitingCount="2" stopTime="0.00" timeLoss="77.86" rerouteNo="0" devices="tripinfo_s1-w4_0.8" vType="DEFAULT_VEHTYPE" speedFactor="0.87" vaporized=""/>
    <tripinfo id="w4-s1_0.17" depart="68.00" departLane="OrigionW4_0" departPos="5.10" departSpeed="0.00" departDelay="0.00" arrival="197.00" arrivalLane="DestinationS1_1" arrivalPos="373.48" arrivalSpeed="28.73" duration="129.00" routeLength="2089.17" waitingTime="14.00" waitingCount="2" stopTime="0.00" timeLoss="55.80" rerouteNo="0" devices="tripinfo_w4-s1_0.17" vType="DEFAULT_VEHTYPE" speedFactor="1.04" vaporized=""/>
    <tripinfo id="w4-s1_0.16" depart="64.00" departLane="OrigionW4_0" departPos="5.10" departSpeed="0.00" departDelay="0.00" arrival="197.00" arrivalLane="DestinationS1_0" arrivalPos="373.48" arrivalSpeed="26.97" duration="133.00" routeLength="2089.17" waitingTime="16.00" waitingCount="2" stopTime="0.00" timeLoss="61.53" rerouteNo="0" devices="tripinfo_w4-s1_0.16" vType="DEFAULT_VEHTYPE" speedFactor="1.05" vaporized=""/>
    <tripinfo id="s1-w4_0.13" depart="52.00" departLane="OrigionS1_0" departPos="5.10" departSpeed="0.00" departDelay="0.00" arrival="198.00" arrivalLane="DestinationW4_1" arrivalPos="242.47" arrivalSpeed="27.84" duration="146.00" routeLength="2089.17" waitingTime="34.00" waitingCount="2" stopTime="0.00" timeLoss="77.21" rerouteNo="0" devices="tripinfo_s1-w4_0.13" vType="DEFAULT_VEHTYPE" speedFactor="1.11" vaporized=""/>
    <tripinfo id="s1-w4_0.12" depart="48.00" departLane="OrigionS1_0" departPos="5.10" departSpeed="0.00" departDelay="0.00" arrival="198.00" arrivalLane="DestinationW4_0" arrivalPos="242.47" arrivalSpeed="26.71" duration="150.00" routeLength="2089.17" waitingTime="33.00" waitingCount="2" stopTime="0.00" timeLoss="73.41" rerouteNo="0" devices="tripinfo_s1-w4_0.12" vType="DEFAULT_VEHTYPE" speedFactor="0.99" vaporized=""/>
    <tripinfo id="s1-w4_0.15" depart="60.00" departLane="OrigionS1_0" departPos="5.10" departSpeed="0.00" departDelay="0.00" arrival="199.00" arrivalLane="DestinationW4_1" arrivalPos="242.47" arrivalSpeed="27.26" duration="139.00" routeLength="2089.17" waitingTime="31.00" waitingCount="1" stopTime="0.00" timeLoss="72.73" rerouteNo="0" devices="tripinfo_s1-w4_0.15" vType="DEFAULT_VEHTYPE" speedFactor="1.14" vaporized=""/>
    <tripinfo id="s1-w4_0.14" depart="56.00" departLane="OrigionS1_0" departPos="5.10" departSpeed="0.00" departDelay="0.00" arrival="199.00" arrivalLane="DestinationW4_0" arrivalPos="242.47" arrivalSpeed="24.81" duration="143.00" routeLength="2089.17" waitingTime="31.00" waitingCount="1" stopTime="0.00" timeLoss="61.63" rerouteNo="0" devices="tripinfo_s1-w4_0.14" vType="DEFAULT_VEHTYPE" speedFactor="0.92" vaporized=""/>
    <tripinfo id="w4-s1_0.19" depart="76.00" departLane="OrigionW4_0" departPos="5.10" departSpeed="0.00" departDelay="0.00" arrival="199.00" arrivalLane="DestinationS1_0" arrivalPos="373.48" arrivalSpeed="27.14" duration="123.00" routeLength="2089.17" waitingTime="8.00" waitingCount="1" stopTime="0.00" timeLoss="47.20" rerouteNo="0" devices="tripinfo_w4-s1_0.19" vType="DEFAULT_VEHTYPE" speedFactor="1.00" vaporized=""/>
    <tripinfo id="s1-w4_0.18" depart="72.00" departLane="OrigionS1_0" departPos="5.10" departSpeed="0.00" departDelay="0.00" arrival="200.00" arrivalLane="DestinationW4_1" arrivalPos="242.47" arrivalSpeed="27.81" duration="128.00" routeLength="2089.17" waitingTime="30.00" waitingCount="1" stopTime="0.00" timeLoss="55.88" rerouteNo="0" devices="tripinfo_s1-w4_0.18" vType="DEFAULT_VEHTYPE" speedFactor="1.04" vaporized=""/>
    <tripinfo id="n7-s3_0.0" depart="0.00" departLane="OrigionN7_0" departPos="5.10" departSpeed="0.00" departDelay="0.00" arrival="200.00" arrivalLane="DestinationS3_0" arrivalPos="924.28" arrivalSpeed="31.21" duration="200.00" routeLength="4886.27" waitingTime="24.00" waitingCount="1" stopTime="0.00" timeLoss="48.25" rerouteNo="0" devices="tripinfo_n7-s3_0.0" vType="DEFAULT_VEHTYPE" speedFactor="1.16" vaporized=""/>
    <tripinfo id="s1-w4_0.16" depart="64.00" departLane="OrigionS1_0" departPos="5.10" departSpeed="0.00" departDelay="0.00" arrival="201.00" arrivalLane="DestinationW4_0" arrivalPos="242.47" arrivalSpeed="27.78" duration="137.00" routeLength="2089.17" waitingTime="29.00" waitingCount="1" stopTime="0.00" timeLoss="61.50" rerouteNo="0" devices="tripinfo_s1-w4_0.16" vType="DEFAULT_VEHTYPE" speedFactor="1.00" vaporized=""/>
    <tripinfo id="w4-s1_0.18" depart="72.00" departLane="OrigionW4_0" departPos="5.10" departSpeed="0.00" departDelay="0.00" arrival="201.00" arrivalLane="DestinationS1_1" arrivalPos="373.48" arrivalSpeed="23.58" duration="129.00" routeLength="2089.17" waitingTime="10.00" waitingCount="1" stopTime="0.00" timeLoss="40.81" rerouteNo="0" devices="tripinfo_w4-s1_0.18" vType="DEFAULT_VEHTYPE" speedFactor="0.86" vaporized=""/>
    <tripinfo id="w4-s1_0.21" depart="84.00" departLane="OrigionW4_0" departPos="5.10" departSpeed="0.00" departDelay="0.00" arrival="201.00" arrivalLane="DestinationS1_0" arrivalPos="373.48" arrivalSpeed="23.29" duration="117.00" routeLength="2089.17" waitingTime="7.00" waitingCount="1" stopTime="0.00" timeLoss="35.74" rerouteNo="0" devices="tripinfo_w4-s1_0.21" vType="DEFAULT_VEHTYPE" speedFactor="0.93" vaporized=""/>
    <tripinfo id="s1-w4_0.20" depart="80.00" departLane="OrigionS1_0" departPos="5.10" departSpeed="0.00" departDelay="0.00" arrival="202.00" arrivalLane="DestinationW4_1" arrivalPos="242.47" arrivalSpeed="24.89" duration="122.00" routeLength="2089.17" waitingTime="19.00" waitingCount="1" stopTime="0.00" timeLoss="38.93" rerouteNo="0" devices="tripinfo_s1-w4_0.20" vType="DEFAULT_VEHTYPE" speedFactor="0.91" vaporized=""/>
    <tripinfo id="w4-s1_0.20" depart="80.00" departLane="OrigionW4_0" departPos="5.10" departSpeed="0.00" departDelay="0.00" arrival="202.00" arrivalLane="DestinationS1_1" arrivalPos="373.48" arrivalSpeed="24.23" duration="122.00" routeLength="2089.17" waitingTime="10.00" waitingCount="1" stopTime="0.00" timeLoss="39.23" rerouteNo="0" devices="tripinfo_w4-s1_0.20" vType="DEFAULT_VEHTYPE" speedFactor="0.91" vaporized=""/>
    <tripinfo id="w2-n6_0.0" depart="0.00" departLane="OrigionW2_0" departPos="5.10" departSpeed="0.00" departDelay="0.00" arrival="202.00" arrivalLane="DestinationN6_0" arrivalPos="784.86" arrivalSpeed="24.25" duration="202.00" routeLength="4002.77" waitingTime="28.00" waitingCount="1" stopTime="0.00" timeLoss="61.79" rerouteNo="0" devices="tripinfo_w2-n6_0.0" vType="DEFAULT_VEHTYPE" speedFactor="1.13" vaporized=""/>
    <tripinfo id="s1-w4_0.17" depart="68.00" departLane="OrigionS1_0" departPos="5.10" departSpeed="0.00" departDelay="0.00" arrival="203.00" arrivalLane="DestinationW4_0" arrivalPos="242.47" arrivalSpeed="24.03" duration="135.00" routeLength="2089.17" waitingTime="25.00" waitingCount="1" stopTime="0.00" timeLoss="48.35" rerouteNo="0" devices="tripinfo_s1-w4_0.17" vType="DEFAULT_VEHTYPE" speedFactor="0.88" vaporized=""/>
    <tripinfo id="s1-w4_0.25" depart="100.00" departLane="OrigionS1_0" departPos="5.10" departSpeed="0.00" departDelay="0.00" arrival="204.00" arrivalLane="DestinationW4_1" arrivalPos="242.47" arrivalSpeed="27.88" duration="104.00" routeLength="2089.17" waitingTime="13.00" waitingCount="1" stopTime="0.00" timeLoss="43.59" rerouteNo="0" devices="tripinfo_s1-w4_0.25" vType="DEFAULT_VEHTYPE" speedFactor="1.26" vaporized=""/>
    <tripinfo id="s1-w4_0.19" depart="76.00" departLane="OrigionS1_0" departPos="5.10" departSpeed="0.00" departDelay="0.00" arrival="206.00" arrivalLane="DestinationW4_0" arrivalPos="242.47" arrivalSpeed="22.28" duration="130.00" routeLength="2089.17" waitingTime="18.00" waitingCount="1" stopTime="0.00" timeLoss="37.25" rerouteNo="0" devices="tripinfo_s1-w4_0.19" vType="DEFAULT_VEHTYPE" speedFactor="0.82" vaporized=""/>
    <tripinfo id="s1-w4_0.23" depart="92.00" departLane="OrigionS1_0" departPos="5.10" departSpeed="0.00" departDelay="0.00" arrival="207.00" arrivalLane="DestinationW4_0" arrivalPos="242.47" arrivalSpeed="25.47" duration="115.00" routeLength="2089.17" waitingTime="16.00" waitingCount="1" stopTime="0.00" timeLoss="36.00" rerouteNo="0" devices="tripinfo_s1-w4_0.23" vType="DEFAULT_VEHTYPE" speedFactor="0.95" vaporized=""/>
    <tripinfo id="s4-n5_0.0" depart="0.00" departLane="OrigionS4_0" departPos="5.10" departSpeed="0.00" departDelay="0.00" arrival="211.00" arrivalLane="DestinationN5_0" arrivalPos="178.17" arrivalSpeed="11.60" duration="211.00" routeLength="3209.41" waitingTime="18.00" waitingCount="1" stopTime="0.00" timeLoss="46.21" rerouteNo="0" devices="tripinfo_s4-n5_0.0" vType="DEFAULT_VEHTYPE" speedFactor="0.87" vaporized=""/>
    <tripinfo id="s6-w5_0.0" depart="0.00" departLane="OrigionS6_0" departPos="5.10" departSpeed="0.00" departDelay="0.00" arrival="215.00" arrivalLane="DestinationW5_0" arrivalPos="259.12" arrivalSpeed="13.30" duration="215.00" routeLength="3323.55" waitingTime="47.00" waitingCount="2" stopTime="0.00" timeLoss="80.70" rerouteNo="0" devices="tripinfo_s6-w5_0.0" vType="DEFAULT_VEHTYPE" speedFactor="0.97" vaporized=""/>
    <tripinfo id="n2-s8_0.0" depart="0.00" departLane="OrigionN2_0" departPos="5.10" departSpeed="0.00" departDelay="0.00" arrival="218.00" arrivalLane="DestinationS8_0" arrivalPos="419.24" arrivalSpeed="22.36" duration="218.00" routeLength="3729.72" waitingTime="26.00" waitingCount="2" stopTime="0.00" timeLoss="69.63" rerouteNo="0" devices="tripinfo_n2-s8_0.0" vType="DEFAULT_VEHTYPE" speedFactor="1.05" vaporized=""/>
    <tripinfo id="n2-s8_0.1" depart="6.00" departLane="OrigionN2_0" departPos="5.10" departSpeed="0.00" departDelay="-0.67" arrival="219.00" arrivalLane="DestinationS8_0" arrivalPos="419.24" arrivalSpeed="23.52" duration="213.00" routeLength="3729.72" waitingTime="25.00" waitingCount="2" stopTime="0.00" timeLoss="70.78" rerouteNo="0" devices="tripinfo_n2-s8_0.1" vType="DEFAULT_VEHTYPE" speedFactor="1.09" vaporized=""/>
    <tripinfo id="n2-s8_0.2" depart="13.00" departLane="OrigionN2_0" departPos="5.10" departSpeed="0.00" departDelay="-0.33" arrival="221.00" arrivalLane="DestinationS8_0" arrivalPos="419.24" arrivalSpeed="24.12" duration="208.00" routeLength="3729.72" waitingTime="21.00" waitingCount="2" stopTime="0.00" timeLoss="70.84" rerouteNo="0" devices="tripinfo_n2-s8_0.2" vType="DEFAULT_VEHTYPE" speedFactor="1.13" vaporized=""/>
    <tripinfo id="n2-s8_0.3" depart="19.00" departLane="OrigionN2_0" departPos="5.10" departSpeed="0.00" departDelay="-1.00" arrival="228.00" arrivalLane="DestinationS8_0" arrivalPos="419.24" arrivalSpeed="19.35" duration="209.00" routeLength="3729.72" waitingTime="9.00" waitingCount="1" stopTime="0.00" timeLoss="34.99" rerouteNo="0" devices="tripinfo_n2-s8_0.3" vType="DEFAULT_VEHTYPE" speedFactor="0.89" vaporized=""/>
    <tripinfo id="e5-e1_0.3" depart="19.00" departLane="OrigionE5_0" departPos="5.10" departSpeed="0.00" departDelay="-1.00" arrival="228.00" arrivalLane="DestinationE1_0" arrivalPos="250.56" arrivalSpeed="19.08" duration="209.00" routeLength="2162.05" waitingTime="48.00" waitingCount="3" stopTime="0.00" timeLoss="83.91" rerouteNo="0" devices="tripinfo_e5-e1_0.3" vType="DEFAULT_VEHTYPE" speedFactor="0.86" vaporized=""/>
    <tripinfo id="n2-s8_0.4" depart="26.00" departLane="OrigionN2_0" departPos="5.10" departSpeed="0.00" departDelay="-0.66" arrival="229.00" arrivalLane="DestinationS8_0" arrivalPos="419.24" arrivalSpeed="20.53" duration="203.00" routeLength="3729.72" waitingTime="8.00" waitingCount="1" stopTime="0.00" timeLoss="55.81" rerouteNo="0" devices="tripinfo_n2-s8_0.4" vType="DEFAULT_VEHTYPE" speedFactor="1.05" vaporized=""/>
    <tripinfo id="e5-e1_0.4" depart="26.00" departLane="OrigionE5_0" departPos="5.10" departSpeed="0.00" departDelay="-0.66" arrival="232.00" arrivalLane="DestinationE1_0" arrivalPos="250.56" arrivalSpeed="16.46" duration="206.00" routeLength="2162.05" waitingTime="30.00" waitingCount="2" stopTime="0.00" timeLoss="60.83" rerouteNo="0" devices="tripinfo_e5-e1_0.4" vType="DEFAULT_VEHTYPE" speedFactor="0.75" vaporized=""/>
    <tripinfo id="e5-e1_0.5" depart="33.00" departLane="OrigionE5_0" departPos="5.10" departSpeed="0.00" departDelay="-0.33" arrival="233.00" arrivalLane="DestinationE1_0" arrivalPos="250.56" arrivalSpeed="18.57" duration="200.00" routeLength="2162.05" waitingTime="27.00" waitingCount="2" stopTime="0.00" timeLoss="96.21" rerouteNo="0" devices="tripinfo_e5-e1_0.5" vType="DEFAULT_VEHTYPE" speedFactor="1.04" vaporized=""/>
    <tripinfo id="n4-w2_0.0" depart="0.00" departLane="OrigionN4_0" departPos="5.10" departSpeed="0.00" departDelay="0.00" arrival="235.00" arrivalLane="DestinationW2_0" arrivalPos="782.62" arrivalSpeed="21.92" duration="235.00" routeLength="3590.24" waitingTime="52.00" waitingCount="2" stopTime="0.00" timeLoss="81.50" rerouteNo="0" devices="tripinfo_n4-w2_0.0" vType="DEFAULT_VEHTYPE" speedFactor="1.01" vaporized=""/>
    <tripinfo id="e5-e1_0.6" depart="39.00" departLane="OrigionE5_0" departPos="5.10" departSpeed="0.00" departDelay="-1.00" arrival="235.00" arrivalLane="DestinationE1_0" arrivalPos="250.56" arrivalSpeed="19.63" duration="196.00" routeLength="2162.05" waitingTime="27.00" waitingCount="2" stopTime="0.00" timeLoss="80.88" rerouteNo="0" devices="tripinfo_e5-e1_0.6" vType="DEFAULT_VEHTYPE" speedFactor="0.94" vaporized=""/>
    <tripinfo id="n4-w2_0.1" depart="4.00" departLane="OrigionN4_0" departPos="5.10" departSpeed="0.00" departDelay="0.00" arrival="236.00" arrivalLane="DestinationW2_0" arrivalPos="782.62" arrivalSpeed="21.71" duration="232.00" routeLength="3590.24" waitingTime="48.00" waitingCount="2" stopTime="0.00" timeLoss="83.11" rerouteNo="0" devices="tripinfo_n4-w2_0.1" vType="DEFAULT_VEHTYPE" speedFactor="1.04" vaporized=""/>
    <tripinfo id="e3-s5_0.0" depart="3.00" departLane="OrigionE3_0" departPos="5.10" departSpeed="0.00" departDelay="3.00" arrival="237.00" arrivalLane="DestinationS5_0" arrivalPos="746.72" arrivalSpeed="25.78" duration="234.00" routeLength="3631.94" waitingTime="71.00" waitingCount="3" stopTime="0.00" timeLoss="119.20" rerouteNo="0" devices="tripinfo_e3-s5_0.0" vType="DEFAULT_VEHTYPE" speedFactor="1.20" vaporized=""/>
    <tripinfo id="e5-e1_0.7" depart="46.00" departLane="OrigionE5_0" departPos="5.10" departSpeed="0.00" departDelay="-0.66" arrival="237.00" arrivalLane="DestinationE1_0" arrivalPos="250.56" arrivalSpeed="20.65" duration="191.00" routeLength="2162.05" waitingTime="26.00" waitingCount="2" stopTime="0.00" timeLoss="76.73" rerouteNo="0" devices="tripinfo_e5-e1_0.7" vType="DEFAULT_VEHTYPE" speedFactor="0.95" vaporized=""/>
    <tripinfo id="e5-e1_0.8" depart="53.00" departLane="OrigionE5_0" departPos="5.10" departSpeed="0.00" departDelay="-0.33" arrival="238.00" arrivalLane="DestinationE1_0" arrivalPos="250.56" arrivalSpeed="22.41" duration="185.00" routeLength="2162.05" waitingTime="24.00" waitingCount="2" stopTime="0.00" timeLoss="83.06" rerouteNo="0" devices="tripinfo_e5-e1_0.8" vType="DEFAULT_VEHTYPE" speedFactor="1.06" vaporized=""/>
    <tripinfo id="e5-e1_0.9" depart="59.00" departLane="OrigionE5_0" departPos="5.10" departSpeed="0.00" departDelay="-0.99" arrival="240.00" arrivalLane="DestinationE1_0" arrivalPos="250.56" arrivalSpeed="21.98" duration="181.00" routeLength="2162.05" waitingTime="24.00" waitingCount="2" stopTime="0.00" timeLoss="75.29" rerouteNo="0" devices="tripinfo_e5-e1_0.9" vType="DEFAULT_VEHTYPE" speedFactor="1.03" vaporized=""/>
    <tripinfo id="e5-e1_0.10" depart="66.00" departLane="OrigionE5_0" departPos="5.10" departSpeed="0.00" departDelay="-0.66" arrival="241.00" arrivalLane="DestinationE1_0" arrivalPos="250.56" arrivalSpeed="22.28" duration="175.00" routeLength="2162.05" waitingTime="20.00" waitingCount="2" stopTime="0.00" timeLoss="80.11" rerouteNo="0" devices="tripinfo_e5-e1_0.10" vType="DEFAULT_VEHTYPE" speedFactor="1.14" vaporized=""/>