<?xml version="1.0" encoding="UTF-8"?>

<!-- generated on Mon Apr 15 13:36:57 2019 by Eclipse SUMO Version v1_0_1+0999-ba34606b5d
<configuration xmlns:xsi="http://www.w3.org/2001/XMLSchema-instance" xsi:noNamespaceSchemaLocation="http://sumo.dlr.de/xsd/sumoConfiguration.xsd">

    <input>
        <net-file value="Chj_final.net.xml"/>
        <route-files value="Chj_Demand8.rou.xml"/>
        <additional-files value="loops.xml"/>
    </input>

    <output>
        <queue-output value="HTSCTestqueue8.xml"/>
        <summary-output value="HTSCTestsummary8.xml"/>
        <tripinfo-output value="HTSCTesttripinfo8.xml"/>
    </output>

    <time>
        <begin value="0"/>
        <end value="3600"/>
    </time>

    <report>
        <xml-validation value="never"/>
        <duration-log.disable value="true"/>
        <no-step-log value="true"/>
    </report>

    <traci_server>
        <remote-port value="58729"/>
    </traci_server>

    <random_number>
        <seed value="11"/>
    </random_number>

</configuration>
-->

<tripinfos xmlns:xsi="http://www.w3.org/2001/XMLSchema-instance" xsi:noNamespaceSchemaLocation="http://sumo.dlr.de/xsd/tripinfo_file.xsd">
    <tripinfo id="s1-w4_0.0" depart="0.00" departLane="OrigionS1_0" departPos="5.10" departSpeed="0.00" departDelay="0.00" arrival="76.00" arrivalLane="DestinationW4_0" arrivalPos="242.47" arrivalSpeed="30.02" duration="76.00" routeLength="2089.17" waitingTime="0.00" waitingCount="0" stopTime="0.00" timeLoss="8.55" rerouteNo="0" devices="tripinfo_s1-w4_0.0" vType="DEFAULT_VEHTYPE" speedFactor="1.12" vaporized=""/>
    <tripinfo id="s1-w4_0.2" depart="9.00" departLane="OrigionS1_0" departPos="5.10" departSpeed="0.00" departDelay="0.00" arrival="81.00" arrivalLane="DestinationW4_1" arrivalPos="242.47" arrivalSpeed="32.05" duration="72.00" routeLength="2089.17" waitingTime="0.00" waitingCount="0" stopTime="0.00" timeLoss="8.91" rerouteNo="0" devices="tripinfo_s1-w4_0.2" vType="DEFAULT_VEHTYPE" speedFactor="1.19" vaporized=""/>
    <tripinfo id="s1-w4_0.1" depart="4.00" departLane="OrigionS1_0" departPos="5.10" departSpeed="0.00" departDelay="-0.50" arrival="81.00" arrivalLane="DestinationW4_0" arrivalPos="242.47" arrivalSpeed="30.13" duration="77.00" routeLength="2089.17" waitingTime="0.00" waitingCount="0" stopTime="0.00" timeLoss="9.29" rerouteNo="0" devices="tripinfo_s1-w4_0.1" vType="DEFAULT_VEHTYPE" speedFactor="1.12" vaporized=""/>
    <tripinfo id="w4-s1_0.2" depart="9.00" departLane="OrigionW4_0" departPos="5.10" departSpeed="0.00" departDelay="0.00" arrival="127.00" arrivalLane="DestinationS1_1" arrivalPos="373.48" arrivalSpeed="25.96" duration="118.00" routeLength="2089.17" waitingTime="16.00" waitingCount="1" stopTime="0.00" timeLoss="40.43" rerouteNo="0" devices="tripinfo_w4-s1_0.2" vType="DEFAULT_VEHTYPE" speedFactor="0.98" vaporized=""/>
    <tripinfo id="w4-s1_0.1" depart="4.00" departLane="OrigionW4_0" departPos="5.10" departSpeed="0.00" departDelay="-0.50" arrival="127.00" arrivalLane="DestinationS1_0" arrivalPos="373.48" arrivalSpeed="26.09" duration="123.00" routeLength="2089.17" waitingTime="17.00" waitingCount="1" stopTime="0.00" timeLoss="43.66" rerouteNo="0" devices="tripinfo_w4-s1_0.1" vType="DEFAULT_VEHTYPE" speedFactor="0.95" vaporized=""/>
    <tripinfo id="w4-s1_0.3" depart="13.00" departLane="OrigionW4_0" departPos="5.10" departSpeed="0.00" departDelay="-0.50" arrival="129.00" arrivalLane="DestinationS1_1" arrivalPos="373.48" arrivalSpeed="26.85" duration="116.00" routeLength="2089.17" waitingTime="15.00" waitingCount="1" stopTime="0.00" timeLoss="37.62" rerouteNo="0" devices="tripinfo_w4-s1_0.3" vType="DEFAULT_VEHTYPE" speedFactor="0.97" vaporized=""/>
    <tripinfo id="w4-s1_0.4" depart="18.00" departLane="OrigionW4_0" departPos="5.10" departSpeed="0.00" departDelay="0.00" arrival="130.00" arrivalLane="DestinationS1_1" arrivalPos="373.48" arrivalSpeed="27.72" duration="112.00" routeLength="2089.17" waitingTime="13.00" waitingCount="1" stopTime="0.00" timeLoss="39.02" rerouteNo="0" devices="tripinfo_w4-s1_0.4" vType="DEFAULT_VEHTYPE" speedFactor="1.04" vaporized=""/>
    <tripinfo id="w4-s1_0.0" depart="0.00" departLane="OrigionW4_0" departPos="5.10" departSpeed="0.00" departDelay="0.00" arrival="130.00" arrivalLane="DestinationS1_0" arrivalPos="373.48" arrivalSpeed="25.64" duration="130.00" routeLength="2089.17" waitingTime="22.00" waitingCount="2" stopTime="0.00" timeLoss="55.29" rerouteNo="0" devices="tripinfo_w4-s1_0.0" vType="DEFAULT_VEHTYPE" speedFactor="1.02" vaporized=""/>
    <tripinfo id="s1-w4_0.3" depart="13.00" departLane="OrigionS1_0" departPos="5.10" departSpeed="0.00" departDelay="-0.50" arrival="131.00" arrivalLane="DestinationW4_0" arrivalPos="242.47" arrivalSpeed="28.88" duration="118.00" routeLength="2089.17" waitingTime="26.00" waitingCount="1" stopTime="0.00" timeLoss="45.58" rerouteNo="0" devices="tripinfo_s1-w4_0.3" vType="DEFAULT_VEHTYPE" speedFactor="1.04" vaporized=""/>
    <tripinfo id="w4-s1_0.5" depart="22.00" departLane="OrigionW4_0" departPos="5.10" departSpeed="0.00" departDelay="-0.50" arrival="131.00" arrivalLane="DestinationS1_0" arrivalPos="373.48" arrivalSpeed="25.59" duration="109.00" routeLength="2089.17" waitingTime="12.00" waitingCount="1" stopTime="0.00" timeLoss="38.13" rerouteNo="0" devices="tripinfo_w4-s1_0.5" vType="DEFAULT_VEHTYPE" speedFactor="1.07" vaporized=""/>
    <tripinfo id="s1-w4_0.4" depart="18.00" departLane="OrigionS1_0" departPos="5.10" departSpeed="0.00" departDelay="0.00" arrival="132.00" arrivalLane="DestinationW4_0" arrivalPos="242.47" arrivalSpeed="27.39" duration="114.00" routeLength="2089.17" waitingTime="21.00" waitingCount="1" stopTime="0.00" timeLoss="38.92" rerouteNo="0" devices="tripinfo_s1-w4_0.4" vType="DEFAULT_VEHTYPE" speedFactor="1.01" vaporized=""/>
    <tripinfo id="w4-s1_0.6" depart="27.00" departLane="OrigionW4_0" departPos="5.10" departSpeed="0.00" departDelay="0.00" arrival="132.00" arrivalLane="DestinationS1_1" arrivalPos="373.48" arrivalSpeed="25.60" duration="105.00" routeLength="2089.17" waitingTime="7.00" waitingCount="1" stopTime="0.00" timeLoss="26.25" rerouteNo="0" devices="tripinfo_w4-s1_0.6" vType="DEFAULT_VEHTYPE" speedFactor="0.96" vaporized=""/>
    <tripinfo id="s1-w4_0.5" depart="22.00" departLane="OrigionS1_0" departPos="5.10" departSpeed="0.00" departDelay="-0.50" arrival="135.00" arrivalLane="DestinationW4_1" arrivalPos="242.47" arrivalSpeed="26.18" duration="113.00" routeLength="2089.17" waitingTime="15.00" waitingCount="1" stopTime="0.00" timeLoss="33.56" rerouteNo="0" devices="tripinfo_s1-w4_0.5" vType="DEFAULT_VEHTYPE" speedFactor="0.96" vaporized=""/>
    <tripinfo id="s1-w4_0.6" depart="27.00" departLane="OrigionS1_0" departPos="5.10" departSpeed="0.00" departDelay="0.00" arrival="144.00" arrivalLane="DestinationW4_0" arrivalPos="242.47" arrivalSpeed="27.20" duration="117.00" routeLength="2089.17" waitingTime="25.00" waitingCount="1" stopTime="0.00" timeLoss="42.73" rerouteNo="0" devices="tripinfo_s1-w4_0.6" vType="DEFAULT_VEHTYPE" speedFactor="1.03" vaporized=""/>
    <tripinfo id="e5-e1_0.0" depart="0.00" departLane="OrigionE5_0" departPos="5.10" departSpeed="0.00" departDelay="0.00" arrival="167.00" arrivalLane="DestinationE1_0" arrivalPos="250.56" arrivalSpeed="18.41" duration="167.00" routeLength="2162.05" waitingTime="23.00" waitingCount="1" stopTime="0.00" timeLoss="42.23" rerouteNo="0" devices="tripinfo_e5-e1_0.0" vType="DEFAULT_VEHTYPE" speedFactor="0.86" vaporized=""/>
    <tripinfo id="w4-s1_0.9" depart="40.00" departLane="OrigionW4_0" departPos="5.10" departSpeed="0.00" departDelay="-0.50" arrival="187.00" arrivalLane="DestinationS1_1" arrivalPos="373.48" arrivalSpeed="27.49" duration="147.00" routeLength="2089.17" waitingTime="40.00" waitingCount="2" stopTime="0.00" timeLoss="70.61" rerouteNo="0" devices="tripinfo_w4-s1_0.9" vType="DEFAULT_VEHTYPE" speedFactor="0.99" vaporized=""/>
    <tripinfo id="w4-s1_0.8" depart="36.00" departLane="OrigionW4_0" departPos="5.10" departSpeed="0.00" departDelay="0.00" arrival="187.00" arrivalLane="DestinationS1_0" arrivalPos="373.48" arrivalSpeed="26.62" duration="151.00" routeLength="2089.17" waitingTime="48.00" waitingCount="2" stopTime="0.00" timeLoss="79.95" rerouteNo="0" devices="tripinfo_w4-s1_0.8" vType="DEFAULT_VEHTYPE" speedFactor="1.06" vaporized=""/>
    <tripinfo id="s1-w4_0.9" depart="40.00" departLane="OrigionS1_0" departPos="5.10" departSpeed="0.00" departDelay="-0.50" arrival="190.00" arrivalLane="DestinationW4_0" arrivalPos="242.47" arrivalSpeed="29.41" duration="150.00" routeLength="2089.17" waitingTime="48.00" waitingCount="2" stopTime="0.00" timeLoss="80.61" rerouteNo="0" devices="tripinfo_s1-w4_0.9" vType="DEFAULT_VEHTYPE" speedFactor="1.09" vaporized=""/>
    <tripinfo id="w4-s1_0.11" depart="49.00" departLane="OrigionW4_0" departPos="5.10" departSpeed="0.00" departDelay="-0.50" arrival="190.00" arrivalLane="DestinationS1_1" arrivalPos="373.48" arrivalSpeed="24.82" duration="141.00" routeLength="2089.17" waitingTime="28.00" waitingCount="2" stopTime="0.00" timeLoss="59.81" rerouteNo="0" devices="tripinfo_w4-s1_0.11" vType="DEFAULT_VEHTYPE" speedFactor="0.93" vaporized=""/>
    <tripinfo id="e5-e1_0.1" depart="7.00" departLane="OrigionE5_0" departPos="5.10" departSpeed="0.00" departDelay="-0.50" arrival="190.00" arrivalLane="DestinationE1_0" arrivalPos="250.56" arrivalSpeed="22.58" duration="183.00" routeLength="2162.05" waitingTime="50.00" waitingCount="2" stopTime="0.00" timeLoss="81.15" rerouteNo="0" devices="tripinfo_e5-e1_0.1" vType="DEFAULT_VEHTYPE" speedFactor="1.06" vaporized=""/>
    <tripinfo id="w4-s1_0.7" depart="31.00" departLane="OrigionW4_0" departPos="5.10" departSpeed="0.00" departDelay="-0.50" arrival="191.00" arrivalLane="DestinationS1_0" arrivalPos="373.48" arrivalSpeed="25.09" duration="160.00" routeLength="2089.17" waitingTime="48.00" waitingCount="2" stopTime="0.00" timeLoss="77.00" rerouteNo="0" devices="tripinfo_w4-s1_0.7" vType="DEFAULT_VEHTYPE" speedFactor="0.92" vaporized=""/>
    <tripinfo id="w4-s1_0.12" depart="54.00" departLane="OrigionW4_0" departPos="5.10" departSpeed="0.00" departDelay="0.00" arrival="192.00" arrivalLane="DestinationS1_1" arrivalPos="373.48" arrivalSpeed="25.38" duration="138.00" routeLength="2089.17" waitingTime="23.00" waitingCount="2" stopTime="0.00" timeLoss="55.79" rerouteNo="0" devices="tripinfo_w4-s1_0.12" vType="DEFAULT_VEHTYPE" speedFactor="0.92" vaporized=""/>
    <tripinfo id="s1-w4_0.10" depart="45.00" departLane="OrigionS1_0" departPos="5.10" departSpeed="0.00" departDelay="0.00" arrival="193.00" arrivalLane="DestinationW4_1" arrivalPos="242.47" arrivalSpeed="28.72" duration="148.00" routeLength="2089.17" waitingTime="42.00" waitingCount="2" stopTime="0.00" timeLoss="75.14" rerouteNo="0" devices="tripinfo_s1-w4_0.10" vType="DEFAULT_VEHTYPE" speedFactor="1.04" vaporized=""/>
    <tripinfo id="s1-w4_0.7" depart="31.00" departLane="OrigionS1_0" departPos="5.10" departSpeed="0.00" departDelay="-0.50" arrival="194.00" arrivalLane="DestinationW4_0" arrivalPos="242.47" arrivalSpeed="24.35" duration="163.00" routeLength="2089.17" waitingTime="52.00" waitingCount="2" stopTime="0.00" timeLoss="77.77" rerouteNo="0" devices="tripinfo_s1-w4_0.7" vType="DEFAULT_VEHTYPE" speedFactor="0.89" vaporized=""/>
    <tripinfo id="w4-s1_0.15" depart="67.00" departLane="OrigionW4_0" departPos="5.10" departSpeed="0.00" departDelay="-0.50" arrival="194.00" arrivalLane="DestinationS1_1" arrivalPos="373.48" arrivalSpeed="24.42" duration="127.00" routeLength="2089.17" waitingTime="10.00" waitingCount="1" stopTime="0.00" timeLoss="43.77" rerouteNo="0" devices="tripinfo_w4-s1_0.15" vType="DEFAULT_VEHTYPE" speedFactor="0.91" vaporized=""/>
    <tripinfo id="w4-s1_0.10" depart="45.00" departLane="OrigionW4_0" departPos="5.10" departSpeed="0.00" departDelay="0.00" arrival="194.00" arrivalLane="DestinationS1_0" arrivalPos="373.48" arrivalSpeed="22.94" duration="149.00" routeLength="2089.17" waitingTime="30.00" waitingCount="2" stopTime="0.00" timeLoss="60.64" rerouteNo="0" devices="tripinfo_w4-s1_0.10" vType="DEFAULT_VEHTYPE" speedFactor="0.86" vaporized=""/>
    <tripinfo id="s1-w4_0.12" depart="54.00" departLane="OrigionS1_0" departPos="5.10" departSpeed="0.00" departDelay="0.00" arrival="195.00" arrivalLane="DestinationW4_1" arrivalPos="242.47" arrivalSpeed="28.63" duration="141.00" routeLength="2089.17" waitingTime="34.00" waitingCount="2" stopTime="0.00" timeLoss="69.91" rerouteNo="0" devices="tripinfo_s1-w4_0.12" vType="DEFAULT_VEHTYPE" speedFactor="1.07" vaporized=""/>
    <tripinfo id="w9-n3_0.0" depart="0.00" departLane="OrigionW9_0" departPos="5.10" departSpeed="0.00" departDelay="0.00" arrival="195.00" arrivalLane="DestinationN3_0" arrivalPos="1620.24" arrivalSpeed="34.96" duration="195.00" routeLength="4141.63" waitingTime="44.00" waitingCount="2" stopTime="0.00" timeLoss="79.57" rerouteNo="0" devices="tripinfo_w9-n3_0.0" vType="DEFAULT_VEHTYPE" speedFactor="1.30" vaporized=""/>
    <tripinfo id="s1-w4_0.14" depart="63.00" departLane="OrigionS1_0" departPos="5.10" departSpeed="0.00" departDelay="0.00" arrival="196.00" arrivalLane="DestinationW4_1" arrivalPos="242.47" arrivalSpeed="30.12" duration="133.00" routeLength="2089.17" waitingTime="32.00" waitingCount="1" stopTime="0.00" timeLoss="63.85" rerouteNo="0" devices="tripinfo_s1-w4_0.14" vType="DEFAULT_VEHTYPE" speedFactor="1.09" vaporized=""/>
    <tripinfo id="s1-w4_0.8" depart="36.00" departLane="OrigionS1_0" departPos="5.10" departSpeed="0.00" departDelay="0.00" arrival="196.00" arrivalLane="DestinationW4_0" arrivalPos="242.47" arrivalSpeed="26.57" duration="160.00" routeLength="2089.17" waitingTime="50.00" waitingCount="2" stopTime="0.00" timeLoss="83.53" rerouteNo="0" devices="tripinfo_s1-w4_0.8" vType="DEFAULT_VEHTYPE" speedFactor="0.99" vaporized=""/>
    <tripinfo id="w4-s1_0.16" depart="72.00" departLane="OrigionW4_0" departPos="5.10" departSpeed="0.00" departDelay="0.00" arrival="196.00" arrivalLane="DestinationS1_1" arrivalPos="373.48" arrivalSpeed="28.28" duration="124.00" routeLength="2089.17" waitingTime="10.00" waitingCount="1" stopTime="0.00" timeLoss="51.33" rerouteNo="0" devices="tripinfo_w4-s1_0.16" vType="DEFAULT_VEHTYPE" speedFactor="1.05" vaporized=""/>
    <tripinfo id="w4-s1_0.13" depart="58.00" departLane="OrigionW4_0" departPos="5.10" departSpeed="0.00" departDelay="-0.50" arrival="196.00" arrivalLane="DestinationS1_0" arrivalPos="373.48" arrivalSpeed="21.78" duration="138.00" routeLength="2089.17" waitingTime="23.00" waitingCount="2" stopTime="0.00" timeLoss="67.20" rerouteNo="0" devices="tripinfo_w4-s1_0.13" vType="DEFAULT_VEHTYPE" speedFactor="1.07" vaporized=""/>
    <tripinfo id="s1-w4_0.11" depart="49.00" departLane="OrigionS1_0" departPos="5.10" departSpeed="0.00" departDelay="-0.50" arrival="197.00" arrivalLane="DestinationW4_0" arrivalPos="242.47" arrivalSpeed="26.99" duration="148.00" routeLength="2089.17" waitingTime="36.00" waitingCount="1" stopTime="0.00" timeLoss="70.51" rerouteNo="0" devices="tripinfo_s1-w4_0.11" vType="DEFAULT_VEHTYPE" speedFactor="0.98" vaporized=""/>
    <tripinfo id="w4-s1_0.18" depart="81.00" departLane="OrigionW4_0" departPos="5.10" departSpeed="0.00" departDelay="0.00" arrival="197.00" arrivalLane="DestinationS1_1" arrivalPos="373.48" arrivalSpeed="28.44" duration="116.00" routeLength="2089.17" waitingTime="9.00" waitingCount="1" stopTime="0.00" timeLoss="52.64" rerouteNo="0" devices="tripinfo_w4-s1_0.18" vType="DEFAULT_VEHTYPE" speedFactor="1.19" vaporized=""/>
    <tripinfo id="w4-s1_0.14" depart="63.00" departLane="OrigionW4_0" departPos="5.10" departSpeed="0.00" departDelay="0.00" arrival="197.00" arrivalLane="DestinationS1_0" arrivalPos="373.48" arrivalSpeed="24.50" duration="134.00" routeLength="2089.17" waitingTime="14.00" waitingCount="1" stopTime="0.00" timeLoss="50.26" rerouteNo="0" devices="tripinfo_w4-s1_0.14" vType="DEFAULT_VEHTYPE" speedFactor="0.90" vaporized=""/>
    <tripinfo id="w4-s1_0.19" depart="85.00" departLane="OrigionW4_0" departPos="5.10" departSpeed="0.00" departDelay="-0.50" arrival="198.00" arrivalLane="DestinationS1_1" arrivalPos="373.48" arrivalSpeed="26.73" duration="113.00" routeLength="2089.17" waitingTime="9.00" waitingCount="1" stopTime="0.00" timeLoss="36.26" rerouteNo="0" devices="tripinfo_w4-s1_0.19" vType="DEFAULT_VEHTYPE" speedFactor="0.98" vaporized=""/>
    <tripinfo id="s1-w4_0.13" depart="58.00" departLane="OrigionS1_0" departPos="5.10" departSpeed="0.00" departDelay="-0.50" arrival="199.00" arrivalLane="DestinationW4_0" arrivalPos="242.47" arrivalSpeed="28.42" duration="141.00" routeLength="2089.17" waitingTime="33.00" waitingCount="1" stopTime="0.00" timeLoss="67.79" rerouteNo="0" devices="tripinfo_s1-w4_0.13" vType="DEFAULT_VEHTYPE" speedFactor="1.04" vaporized=""/>
    <tripinfo id="w4-s1_0.17" depart="76.00" departLane="OrigionW4_0" departPos="5.10" departSpeed="0.00" departDelay="-0.50" arrival="199.00" arrivalLane="DestinationS1_0" arrivalPos="373.48" arrivalSpeed="28.08" duration="123.00" routeLength="2089.17" waitingTime="13.00" waitingCount="1" stopTime="0.00" timeLoss="49.63" rerouteNo="0" devices="tripinfo_w4-s1_0.17" vType="DEFAULT_VEHTYPE" speedFactor="1.04" vaporized=""/>
    <tripinfo id="s1-w4_0.16" depart="72.00" departLane="OrigionS1_0" departPos="5.10" departSpeed="0.00" departDelay="0.00" arrival="201.00" arrivalLane="DestinationW4_1" arrivalPos="242.47" arrivalSpeed="24.42" duration="129.00" routeLength="2089.17" waitingTime="26.00" waitingCount="1" stopTime="0.00" timeLoss="44.18" rerouteNo="0" devices="tripinfo_s1-w4_0.16" vType="DEFAULT_VEHTYPE" speedFactor="0.89" vaporized=""/>
    <tripinfo id="s4-n5_0.0" depart="0.00" departLane="OrigionS4_0" departPos="5.10" departSpeed="0.00" departDelay="0.00" arrival="201.00" arrivalLane="DestinationN5_0" arrivalPos="178.17" arrivalSpeed="14.39" duration="201.00" routeLength="3209.41" waitingTime="35.00" waitingCount="2" stopTime="0.00" timeLoss="70.94" rerouteNo="0" devices="tripinfo_s4-n5_0.0" vType="DEFAULT_VEHTYPE" speedFactor="1.10" vaporized=""/>
    <tripinfo id="s1-w4_0.15" depart="67.00" departLane="OrigionS1_0" departPos="5.10" departSpeed="0.00" departDelay="-0.50" arrival="202.00" arrivalLane="DestinationW4_0" arrivalPos="242.47" arrivalSpeed="25.30" duration="135.00" routeLength="2089.17" waitingTime="33.00" waitingCount="1" stopTime="0.00" timeLoss="66.95" rerouteNo="0" devices="tripinfo_s1-w4_0.15" vType="DEFAULT_VEHTYPE" speedFactor="1.11" vaporized=""/>
    <tripinfo id="s1-w4_0.17" depart="76.00" departLane="OrigionS1_0" departPos="5.10" departSpeed="0.00" departDelay="-0.50" arrival="203.00" arrivalLane="DestinationW4_1" arrivalPos="242.47" arrivalSpeed="23.53" duration="127.00" routeLength="2089.17" waitingTime="22.00" waitingCount="1" stopTime="0.00" timeLoss="41.15" rerouteNo="0" devices="tripinfo_s1-w4_0.17" vType="DEFAULT_VEHTYPE" speedFactor="0.88" vaporized=""/>
    <tripinfo id="s1-w4_0.19" depart="85.00" departLane="OrigionS1_0" departPos="5.10" departSpeed="0.00" departDelay="-0.50" arrival="204.00" arrivalLane="DestinationW4_1" arrivalPos="242.47" arrivalSpeed="25.82" duration="119.00" routeLength="2089.17" waitingTime="27.00" waitingCount="1" stopTime="0.00" timeLoss="47.95" rerouteNo="0" devices="tripinfo_s1-w4_0.19" vType="DEFAULT_VEHTYPE" speedFactor="1.06" vaporized=""/>
    <tripinfo id="w2-n6_0.0" depart="0.00" departLane="OrigionW2_0" departPos="5.10" departSpeed="0.00" departDelay="0.00" arrival="204.00" arrivalLane="DestinationN6_0" arrivalPos="784.86" arrivalSpeed="23.30" duration="204.00" routeLength="4002.77" waitingTime="23.00" waitingCount="1" stopTime="0.00" timeLoss="56.30" rerouteNo="0" devices="tripinfo_w2-n6_0.0" vType="DEFAULT_VEHTYPE" speedFactor="1.07" vaporized=""/>
    <tripinfo id="s4-n5_0.1" depart="4.00" departLane="OrigionS4_0" departPos="5.10" departSpeed="0.00" departDelay="-0.50" arrival="207.00" arrivalLane="DestinationN5_0" arrivalPos="178.17" arrivalSpeed="12.57" duration="203.00" routeLength="3209.41" waitingTime="21.00" waitingCount="2" stopTime="0.00" timeLoss="57.39" rerouteNo="0" devices="tripinfo_s4-n5_0.1" vType="DEFAULT_VEHTYPE" speedFactor="0.98" vaporized=""/>
    <tripinfo id="s6-w5_0.0" depart="0.00" departLane="OrigionS6_0" departPos="5.10" departSpeed="0.00" departDelay="0.00" arrival="212.00" arrivalLane="DestinationW5_0" arrivalPos="259.12" arrivalSpeed="13.87" duration="212.00" routeLength="3323.55" waitingTime="54.00" waitingCount="2" stopTime="0.00" timeLoss="85.48" rerouteNo="0" devices="tripinfo_s6-w5_0.0" vType="DEFAULT_VEHTYPE" speedFactor="1.03" vaporized=""/>
    <tripinfo id="n2-s8_0.0" depart="0.00" departLane="OrigionN2_0" departPos="5.10" departSpeed="0.00" departDelay="0.00" arrival="216.00" arrivalLane="DestinationS8_0" arrivalPos="419.24" arrivalSpeed="23.86" duration="216.00" routeLength="3729.72" waitingTime="27.00" waitingCount="2" stopTime="0.00" timeLoss="78.45" rerouteNo="0" devices="tripinfo_n2-s8_0.0" vType="DEFAULT_VEHTYPE" speedFactor="1.12" vaporized=""/>
    <tripinfo id="n2-s8_0.1" depart="7.00" departLane="OrigionN2_0" departPos="5.10" departSpeed="0.00" departDelay="-0.50" arrival="227.00" arrivalLane="DestinationS8_0" arrivalPos="419.24" arrivalSpeed="18.01" duration="220.00" routeLength="3729.72" waitingTime="6.00" waitingCount="1" stopTime="0.00" timeLoss="38.63" rerouteNo="0" devices="tripinfo_n2-s8_0.1" vType="DEFAULT_VEHTYPE" speedFactor="0.85" vaporized=""/>
    <tripinfo id="e5-e1_0.2" depart="15.00" departLane="OrigionE5_0" departPos="5.10" departSpeed="0.00" departDelay="0.00" arrival="227.00" arrivalLane="DestinationE1_0" arrivalPos="250.56" arrivalSpeed="21.77" duration="212.00" routeLength="2162.05" waitingTime="70.00" waitingCount="3" stopTime="0.00" timeLoss="105.03" rerouteNo="0" devices="tripinfo_e5-e1_0.2" vType="DEFAULT_VEHTYPE" speedFactor="1.01" vaporized=""/>
    <tripinfo id="n2-s8_0.2" depart="15.00" departLane="OrigionN2_0" departPos="5.10" departSpeed="0.00" departDelay="0.00" arrival="228.00" arrivalLane="DestinationS8_0" arrivalPos="419.24" arrivalSpeed="19.41" duration="213.00" routeLength="3729.72" waitingTime="5.00" waitingCount="1" stopTime="0.00" timeLoss="60.10" rerouteNo="0" devices="tripinfo_n2-s8_0.2" vType="DEFAULT_VEHTYPE" speedFactor="1.01" vaporized=""/>
    <tripinfo id="e5-e1_0.3" depart="22.00" departLane="OrigionE5_0" departPos="5.10" departSpeed="0.00" departDelay="-0.50" arrival="229.00" arrivalLane="DestinationE1_0" arrivalPos="250.56" arrivalSpeed="24.72" duration="207.00" routeLength="2162.05" waitingTime="58.00" waitingCount="3" stopTime="0.00" timeLoss="110.54" rerouteNo="0" devices="tripinfo_e5-e1_0.3" vType="DEFAULT_VEHTYPE" speedFactor="1.12" vaporized=""/>
    <tripinfo id="n2-s8_0.3" depart="22.00" departLane="OrigionN2_0" departPos="5.10" departSpeed="0.00" departDelay="-0.50" arrival="230.00" arrivalLane="DestinationS8_0" arrivalPos="419.24" arrivalSpeed="22.08" duration="208.00" routeLength="3729.72" waitingTime="5.00" waitingCount="1" stopTime="0.00" timeLoss="69.61" rerouteNo="0" devices="tripinfo_n2-s8_0.3" vType="DEFAULT_VEHTYPE" speedFactor="1.12" vaporized=""/>
    <tripinfo id="e5-e1_0.4" depart="30.00" departLane="OrigionE5_0" departPos="5.10" departSpeed="0.00" departDelay="0.00" arrival="230.00" arrivalLane="DestinationE1_0" arrivalPos="250.56" arrivalSpeed="23.63" duration="200.00" routeLength="2162.05" waitingTime="55.00" waitingCount="3" stopTime="0.00" timeLoss="100.81" rerouteNo="0" devices="tripinfo_e5-e1_0.4" vType="DEFAULT_VEHTYPE" speedFactor="1.09" vaporized=""/>
    <tripinfo id="e5-e1_0.5" depart="37.00" departLane="OrigionE5_0" departPos="5.10" departSpeed="0.00" departDelay="-0.50" arrival="232.00" arrivalLane="DestinationE1_0" arrivalPos="250.56" arrivalSpeed="23.01" duration="195.00" routeLength="2162.05" waitingTime="47.00" waitingCount="3" stopTime="0.00" timeLoss="95.36" rerouteNo="0" devices="tripinfo_e5-e1_0.5" vType="DEFAULT_VEHTYPE" speedFactor="1.09" vaporized=""/>
    <tripinfo id="n4-w2_0.1" depart="4.00" departLane="OrigionN4_0" departPos="5.10" departSpeed="0.00" departDelay="-0.50" arrival="233.00" arrivalLane="DestinationW2_0" arrivalPos="782.62" arrivalSpeed="22.86" duration="229.00" routeLength="3590.24" waitingTime="49.00" waitingCount="2" stopTime="0.00" timeLoss="83.91" rerouteNo="0" devices="tripinfo_n4-w2_0.1" vType="DEFAULT_VEHTYPE" speedFactor="1.07" vaporized=""/>
    <tripinfo id="e5-e1_0.6" depart="45.00" departLane="OrigionE5_0" departPos="5.10" departSpeed="0.00" departDelay="0.00" arrival="234.00" arrivalLane="DestinationE1_0" arrivalPos="250.56" arrivalSpeed="21.13" duration="189.00" routeLength="2162.05" waitingTime="41.00" waitingCount="2" stopTime="0.00" timeLoss="79.35" rerouteNo="0" devices="tripinfo_e5-e1_0.6" vType="DEFAULT_VEHTYPE" speedFactor="0.99" vaporized=""/>
    <tripinfo id="e5-e1_0.7" depart="52.00" departLane="OrigionE5_0" departPos="5.10" departSpeed="0.00" departDelay="-0.50" arrival="236.00" arrivalLane="DestinationE1_0" arrivalPos="250.56" arrivalSpeed="23.30" duration="184.00" routeLength="2162.05" waitingTime="41.00" waitingCount="2" stopTime="0.00" timeLoss="82.52" rerouteNo="0" devices="tripinfo_e5-e1_0.7" vType="DEFAULT_VEHTYPE" speedFactor="1.07" vaporized=""/>
    <tripinfo id="e5-e1_0.8" depart="60.00" departLane="OrigionE5_0" departPos="5.10" departSpeed="0.00" departDelay="0.00" arrival="238.00" arrivalLane="DestinationE1_0" arrivalPos="250.56" arrivalSpeed="20.16" duration="178.00" routeLength="2162.05" waitingTime="32.00" waitingCount="2" stopTime="0.00" timeLoss="64.53" rerouteNo="0" devices="tripinfo_e5-e1_0.8" vType="DEFAULT_VEHTYPE" speedFactor="0.96" vaporized=""/>
    <tripinfo id="w4-s1_0.20" depart="90.00" departLane="OrigionW4_0" departPos="5.10" departSpeed="0.00" departDelay="0.00" arrival="242.00" arrivalLane="DestinationS1_0" arrivalPos="373.48" arrivalSpeed="33.68" duration="152.00" routeLength="2089.17" waitingTime="60.00" waitingCount="2" stopTime="0.00" timeLoss="91.17" rerouteNo="0" devices="tripinfo_w4-s1_0.20" vType="DEFAULT_VEHTYPE" speedFactor="1.25" vaporized=""/>
    <tripinfo id="w4-s1_0.22" depart="99.00" departLane="OrigionW4_0" departPos="5.10" departSpeed="0.00" departDelay="0.00" arrival="244.00" arrivalLane="DestinationS1_1" arrivalPos="373.48" arrivalSpeed="33.04" duration="145.00" routeLength="2089.17" waitingTime="45.00" waitingCount="2" stopTime="0.00" timeLoss="81.88" rerouteNo="0" devices="tripinfo_w4-s1_0.22" vType="DEFAULT_VEHTYPE" speedFactor="1.19" vaporized=""/>
    <tripinfo id="e3-s5_0.0" depart="3.00" departLane="OrigionE3_0" departPos="5.10" departSpeed="0.00" departDelay="3.00" arrival="244.00" arrivalLane="DestinationS5_0" arrivalPos="746.72" arrivalSpeed="21.75" duration="241.00" routeLength="3631.94" waitingTime="66.00" waitingCount="3" stopTime="0.00" timeLoss="107.36" rerouteNo="0" devices="tripinfo_e3-s5_0.0" vType="DEFAULT_VEHTYPE" speedFactor="1.03" vaporized=""/>
    <tripinfo id="w4-s1_0.21" depart="94.00" departLane="OrigionW4_0" departPos="5.10" departSpeed="0.00" departDelay="-0.50" arrival="245.00" arrivalLane="DestinationS1_0" arrivalPos="373.48" arrivalSpeed="28.55" duration="151.00" routeLength="2089.17" waitingTime="47.00" waitingCount="2" stopTime="0.00" timeLoss="79.21" rerouteNo="0" devices="tripinfo_w4-s1_0.21" vType="DEFAULT_VEHTYPE" speedFactor="1.05" vaporized=""/>
    <tripinfo id="e3-s5_0.3" depart="25.00" departLane="OrigionE3_0" departPos="5.10" departSpeed="0.00" departDelay="2.50" arrival="246.00" arrivalLane="DestinationS5_0" arrivalPos="746.72" arrivalSpeed="22.91" duration="221.00" routeLength="3631.94" waitingTime="45.00" waitingCount="3" stopTime="0.00" timeLoss="89.14" rerouteNo="0" devices="tripinfo_e3-s5_0.3" vType="DEFAULT_VEHTYPE" speedFactor="1.05" vaporized=""/>
    <tripinfo id="e3-s5_0.4" depart="33.00" departLane="OrigionE3_0" departPos="5.10" departSpeed="0.00" departDelay="3.00" arrival="249.00" arrivalLane="DestinationS5_0" arrivalPos="746.72" arrivalSpeed="21.04" duration="216.00" routeLength="3631.94" waitingTime="34.00" waitingCount="3" stopTime="0.00" timeLoss="78.33" rerouteNo="0" devices="tripinfo_e3-s5_0.4" vType="DEFAULT_VEHTYPE" speedFactor="1.00" vaporized=""/>
    <tripinfo id="w4-s1_0.24" depart="108.00" departLane="OrigionW4_0" departPos="5.10" departSpeed="0.00" departDelay="0.00" arrival="251.00" arrivalLane="DestinationS1_1" arrivalPos="373.48" arrivalSpeed="26.65" duration="143.00" routeLength="2089.17" waitingTime="32.00" waitingCount="2" stopTime="0.00" timeLoss="64.84" rerouteNo="0" devices="tripinfo_w4-s1_0.24" vType="DEFAULT_VEHTYPE" speedFactor="0.97" vaporized=""/>
    <tripinfo id="w4-s1_0.23" depart="103.00" departLane="OrigionW4_0" departPos="5.10" departSpeed="0.00" departDelay="-0.50" arrival="251.00" arrivalLane="DestinationS1_0" arrivalPos="373.48" arrivalSpeed="24.14" duration="148.00" routeLength="2089.17" waitingTime="30.00" waitingCount="2" stopTime="0.00" timeLoss="61.35" rerouteNo="0" devices="tripinfo_w4-s1_0.23" vType="DEFAULT_VEHTYPE" speedFactor="0.87" vaporized=""/>
    <tripinfo id="e3-s5_0.2" depart="18.00" departLane="OrigionE3_0" departPos="5.10" departSpeed="0.00" departDelay="3.00" arrival="251.00" arrivalLane="DestinationS5_0" arrivalPos="746.72" arrivalSpeed="21.62" duration="233.00" routeLength="3631.94" waitingTime="52.00" waitingCount="3" stopTime="0.00" timeLoss="94.35" rerouteNo="0" devices="tripinfo_e3-s5_0.2" vType="DEFAULT_VEHTYPE" speedFactor="1.00" vaporized=""/>
    <tripinfo id="s1-w4_0.20" depart="90.00" departLane="OrigionS1_0" departPos="5.10" departSpeed="0.00" departDelay="0.00" arrival="252.00" arrivalLane="DestinationW4_1" arrivalPos="242.47" arrivalSpeed="26.99" duration="162.00" routeLength="2089.17" waitingTime="57.00" waitingCount="2" stopTime="0.00" timeLoss="85.55" rerouteNo="0" devices="tripinfo_s1-w4_0.20" vType="DEFAULT_VEHTYPE" speedFactor="0.99" vaporized=""/>