<?xml version="1.0" encoding="UTF-8"?>

<!-- generated on 4/16/2019 7:43:28 PM by SUMO gui Version 0.32.0
<?xml version="1.0" encoding="UTF-8"?>

<configuration xmlns:xsi="http://www.w3.org/2001/XMLSchema-instance" xsi:noNamespaceSchemaLocation="http://sumo.dlr.de/xsd/sumoConfiguration.xsd">

    <input>
        <net-file value="Chj_final.net.xml"/>
        <route-files value="Chj_Demand8.rou.xml"/>
        <additional-files value="loops.xml"/>
    </input>

    <output>
        <queue-output value="HTSCTestqueue8.xml"/>
        <summary-output value="HTSCTestsummary8.xml"/>
        <tripinfo-output value="HTSCTesttripinfo8.xml"/>
    </output>

    <time>
        <begin value="0"/>
        <end value="3600"/>
    </time>

    <report>
        <xml-validation value="never"/>
        <duration-log.disable value="true"/>
        <no-step-log value="true"/>
    </report>

    <traci_server>
        <remote-port value="13212"/>
    </traci_server>

    <random_number>
        <seed value="21"/>
    </random_number>

</configuration>
-->

<tripinfos xmlns:xsi="http://www.w3.org/2001/XMLSchema-instance" xsi:noNamespaceSchemaLocation="http://sumo.dlr.de/xsd/tripinfo_file.xsd">
    <tripinfo id="s1-w4_0.0" depart="0.00" departLane="OrigionS1_0" departPos="5.10" departSpeed="0.00" departDelay="0.00" arrival="83.00" arrivalLane="DestinationW4_0" arrivalPos="242.47" arrivalSpeed="26.78" duration="83.00" routeLength="2089.17" waitSteps="0" timeLoss="7.79" rerouteNo="0" devices="tripinfo_s1-w4_0.0" vType="DEFAULT_VEHTYPE" speedFactor="1.00" vaporized=""/>
    <tripinfo id="w4-s1_0.2" depart="9.00" departLane="OrigionW4_0" departPos="5.10" departSpeed="0.00" departDelay="0.00" arrival="127.00" arrivalLane="DestinationS1_1" arrivalPos="373.48" arrivalSpeed="27.11" duration="118.00" routeLength="2089.17" waitSteps="15" timeLoss="42.17" rerouteNo="0" devices="tripinfo_w4-s1_0.2" vType="DEFAULT_VEHTYPE" speedFactor="1.00" vaporized=""/>
    <tripinfo id="w4-s1_0.1" depart="4.00" departLane="OrigionW4_0" departPos="5.10" departSpeed="0.00" departDelay="-0.50" arrival="127.00" arrivalLane="DestinationS1_0" arrivalPos="373.48" arrivalSpeed="27.35" duration="123.00" routeLength="2089.17" waitSteps="18" timeLoss="47.56" rerouteNo="0" devices="tripinfo_w4-s1_0.1" vType="DEFAULT_VEHTYPE" speedFactor="1.00" vaporized=""/>
    <tripinfo id="w4-s1_0.3" depart="13.00" departLane="OrigionW4_0" departPos="5.10" departSpeed="0.00" departDelay="-0.50" arrival="128.00" arrivalLane="DestinationS1_1" arrivalPos="373.48" arrivalSpeed="27.43" duration="115.00" routeLength="2089.17" waitSteps="15" timeLoss="39.78" rerouteNo="0" devices="tripinfo_w4-s1_0.3" vType="DEFAULT_VEHTYPE" speedFactor="1.00" vaporized=""/>
    <tripinfo id="w4-s1_0.0" depart="0.00" departLane="OrigionW4_0" departPos="5.10" departSpeed="0.00" departDelay="0.00" arrival="129.00" arrivalLane="DestinationS1_0" arrivalPos="373.48" arrivalSpeed="27.01" duration="129.00" routeLength="2089.17" waitSteps="21" timeLoss="53.17" rerouteNo="0" devices="tripinfo_w4-s1_0.0" vType="DEFAULT_VEHTYPE" speedFactor="1.00" vaporized=""/>
    <tripinfo id="w4-s1_0.4" depart="18.00" departLane="OrigionW4_0" departPos="5.10" departSpeed="0.00" departDelay="0.00" arrival="130.00" arrivalLane="DestinationS1_1" arrivalPos="373.48" arrivalSpeed="26.67" duration="112.00" routeLength="2089.17" waitSteps="15" timeLoss="36.32" rerouteNo="0" devices="tripinfo_w4-s1_0.4" vType="DEFAULT_VEHTYPE" speedFactor="1.00" vaporized=""/>
    <tripinfo id="w4-s1_0.5" depart="22.00" departLane="OrigionW4_0" departPos="5.10" departSpeed="0.00" departDelay="-0.50" arrival="130.00" arrivalLane="DestinationS1_0" arrivalPos="373.48" arrivalSpeed="27.07" duration="108.00" routeLength="2089.17" waitSteps="9" timeLoss="32.77" rerouteNo="0" devices="tripinfo_w4-s1_0.5" vType="DEFAULT_VEHTYPE" speedFactor="1.00" vaporized=""/>
    <tripinfo id="s1-w4_0.2" depart="9.00" departLane="OrigionS1_0" departPos="5.10" departSpeed="0.00" departDelay="0.00" arrival="132.00" arrivalLane="DestinationW4_1" arrivalPos="242.47" arrivalSpeed="26.63" duration="123.00" routeLength="2089.17" waitSteps="28" timeLoss="47.41" rerouteNo="0" devices="tripinfo_s1-w4_0.2" vType="DEFAULT_VEHTYPE" speedFactor="1.00" vaporized=""/>
    <tripinfo id="s1-w4_0.1" depart="4.00" departLane="OrigionS1_0" departPos="5.10" departSpeed="0.00" departDelay="-0.50" arrival="132.00" arrivalLane="DestinationW4_0" arrivalPos="242.47" arrivalSpeed="27.28" duration="128.00" routeLength="2089.17" waitSteps="38" timeLoss="51.77" rerouteNo="0" devices="tripinfo_s1-w4_0.1" vType="DEFAULT_VEHTYPE" speedFactor="1.00" vaporized=""/>
    <tripinfo id="w4-s1_0.6" depart="27.00" departLane="OrigionW4_0" departPos="5.10" departSpeed="0.00" departDelay="0.00" arrival="132.00" arrivalLane="DestinationS1_1" arrivalPos="373.48" arrivalSpeed="26.53" duration="105.00" routeLength="2089.17" waitSteps="8" timeLoss="28.91" rerouteNo="0" devices="tripinfo_w4-s1_0.6" vType="DEFAULT_VEHTYPE" speedFactor="1.00" vaporized=""/>
    <tripinfo id="e5-e1_0.0" depart="0.00" departLane="OrigionE5_0" departPos="5.10" departSpeed="0.00" departDelay="0.00" arrival="132.00" arrivalLane="DestinationE1_0" arrivalPos="250.56" arrivalSpeed="21.69" duration="132.00" routeLength="2162.05" waitSteps="5" timeLoss="23.65" rerouteNo="0" devices="tripinfo_e5-e1_0.0" vType="DEFAULT_VEHTYPE" speedFactor="1.00" vaporized=""/>
    <tripinfo id="s1-w4_0.5" depart="22.00" departLane="OrigionS1_0" departPos="5.10" departSpeed="0.00" departDelay="-0.50" arrival="133.00" arrivalLane="DestinationW4_0" arrivalPos="242.47" arrivalSpeed="27.20" duration="111.00" routeLength="2089.17" waitSteps="16" timeLoss="35.52" rerouteNo="0" devices="tripinfo_s1-w4_0.5" vType="DEFAULT_VEHTYPE" speedFactor="1.00" vaporized=""/>
    <tripinfo id="s1-w4_0.3" depart="13.00" departLane="OrigionS1_0" departPos="5.10" departSpeed="0.00" departDelay="-0.50" arrival="134.00" arrivalLane="DestinationW4_1" arrivalPos="242.47" arrivalSpeed="26.74" duration="121.00" routeLength="2089.17" waitSteps="27" timeLoss="45.43" rerouteNo="0" devices="tripinfo_s1-w4_0.3" vType="DEFAULT_VEHTYPE" speedFactor="1.00" vaporized=""/>
    <tripinfo id="s1-w4_0.4" depart="18.00" departLane="OrigionS1_0" departPos="5.10" departSpeed="0.00" departDelay="0.00" arrival="135.00" arrivalLane="DestinationW4_0" arrivalPos="242.47" arrivalSpeed="26.95" duration="117.00" routeLength="2089.17" waitSteps="19" timeLoss="41.45" rerouteNo="0" devices="tripinfo_s1-w4_0.4" vType="DEFAULT_VEHTYPE" speedFactor="1.00" vaporized=""/>
    <tripinfo id="s1-w4_0.10" depart="45.00" departLane="OrigionS1_0" departPos="5.10" departSpeed="0.00" departDelay="0.00" arrival="137.00" arrivalLane="DestinationW4_0" arrivalPos="242.47" arrivalSpeed="27.60" duration="92.00" routeLength="2089.17" waitSteps="7" timeLoss="29.83" rerouteNo="0" devices="tripinfo_s1-w4_0.10" vType="DEFAULT_VEHTYPE" speedFactor="1.00" vaporized=""/>
    <tripinfo id="s1-w4_0.11" depart="49.00" departLane="OrigionS1_0" departPos="5.10" departSpeed="0.00" departDelay="-0.50" arrival="141.00" arrivalLane="DestinationW4_0" arrivalPos="242.47" arrivalSpeed="27.36" duration="92.00" routeLength="2089.17" waitSteps="4" timeLoss="24.08" rerouteNo="0" devices="tripinfo_s1-w4_0.11" vType="DEFAULT_VEHTYPE" speedFactor="1.00" vaporized=""/>
    <tripinfo id="s1-w4_0.7" depart="31.00" departLane="OrigionS1_0" departPos="5.10" departSpeed="0.00" departDelay="-0.50" arrival="144.00" arrivalLane="DestinationW4_1" arrivalPos="242.47" arrivalSpeed="27.50" duration="113.00" routeLength="2089.17" waitSteps="18" timeLoss="37.78" rerouteNo="0" devices="tripinfo_s1-w4_0.7" vType="DEFAULT_VEHTYPE" speedFactor="1.00" vaporized=""/>
    <tripinfo id="s1-w4_0.6" depart="27.00" departLane="OrigionS1_0" departPos="5.10" departSpeed="0.00" departDelay="0.00" arrival="144.00" arrivalLane="DestinationW4_0" arrivalPos="242.47" arrivalSpeed="27.02" duration="117.00" routeLength="2089.17" waitSteps="24" timeLoss="41.74" rerouteNo="0" devices="tripinfo_s1-w4_0.6" vType="DEFAULT_VEHTYPE" speedFactor="1.00" vaporized=""/>
    <tripinfo id="e5-e1_0.1" depart="7.00" departLane="OrigionE5_0" departPos="5.10" departSpeed="0.00" departDelay="-0.50" arrival="167.00" arrivalLane="DestinationE1_0" arrivalPos="250.56" arrivalSpeed="21.96" duration="160.00" routeLength="2162.05" waitSteps="27" timeLoss="51.99" rerouteNo="0" devices="tripinfo_e5-e1_0.1" vType="DEFAULT_VEHTYPE" speedFactor="1.00" vaporized=""/>
    <tripinfo id="w4-s1_0.8" depart="36.00" departLane="OrigionW4_0" departPos="5.10" departSpeed="0.00" departDelay="0.00" arrival="186.00" arrivalLane="DestinationS1_1" arrivalPos="373.48" arrivalSpeed="26.76" duration="150.00" routeLength="2089.17" waitSteps="45" timeLoss="74.29" rerouteNo="0" devices="tripinfo_w4-s1_0.8" vType="DEFAULT_VEHTYPE" speedFactor="1.00" vaporized=""/>
    <tripinfo id="w4-s1_0.7" depart="31.00" departLane="OrigionW4_0" departPos="5.10" departSpeed="0.00" departDelay="-0.50" arrival="187.00" arrivalLane="DestinationS1_0" arrivalPos="373.48" arrivalSpeed="27.44" duration="156.00" routeLength="2089.17" waitSteps="56" timeLoss="80.03" rerouteNo="0" devices="tripinfo_w4-s1_0.7" vType="DEFAULT_VEHTYPE" speedFactor="1.00" vaporized=""/>
    <tripinfo id="w4-s1_0.9" depart="40.00" departLane="OrigionW4_0" departPos="5.10" departSpeed="0.00" departDelay="-0.50" arrival="188.00" arrivalLane="DestinationS1_1" arrivalPos="373.48" arrivalSpeed="26.86" duration="148.00" routeLength="2089.17" waitSteps="42" timeLoss="72.36" rerouteNo="0" devices="tripinfo_w4-s1_0.9" vType="DEFAULT_VEHTYPE" speedFactor="1.00" vaporized=""/>
    <tripinfo id="w4-s1_0.10" depart="45.00" departLane="OrigionW4_0" departPos="5.10" departSpeed="0.00" departDelay="0.00" arrival="189.00" arrivalLane="DestinationS1_0" arrivalPos="373.48" arrivalSpeed="27.56" duration="144.00" routeLength="2089.17" waitSteps="34" timeLoss="68.44" rerouteNo="0" devices="tripinfo_w4-s1_0.10" vType="DEFAULT_VEHTYPE" speedFactor="1.00" vaporized=""/>
    <tripinfo id="e5-e1_0.4" depart="30.00" departLane="OrigionE5_0" departPos="5.10" departSpeed="0.00" departDelay="0.00" arrival="189.00" arrivalLane="DestinationE1_0" arrivalPos="250.56" arrivalSpeed="22.21" duration="159.00" routeLength="2162.05" waitSteps="22" timeLoss="57.80" rerouteNo="0" devices="tripinfo_e5-e1_0.4" vType="DEFAULT_VEHTYPE" speedFactor="1.00" vaporized=""/>
    <tripinfo id="w4-s1_0.11" depart="49.00" departLane="OrigionW4_0" departPos="5.10" departSpeed="0.00" departDelay="-0.50" arrival="190.00" arrivalLane="DestinationS1_1" arrivalPos="373.48" arrivalSpeed="27.26" duration="141.00" routeLength="2089.17" waitSteps="33" timeLoss="65.31" rerouteNo="0" devices="tripinfo_w4-s1_0.11" vType="DEFAULT_VEHTYPE" speedFactor="1.00" vaporized=""/>
    <tripinfo id="w4-s1_0.12" depart="54.00" departLane="OrigionW4_0" departPos="5.10" departSpeed="0.00" departDelay="0.00" arrival="191.00" arrivalLane="DestinationS1_0" arrivalPos="373.48" arrivalSpeed="27.52" duration="137.00" routeLength="2089.17" waitSteps="25" timeLoss="60.98" rerouteNo="0" devices="tripinfo_w4-s1_0.12" vType="DEFAULT_VEHTYPE" speedFactor="1.00" vaporized=""/>
    <tripinfo id="s1-w4_0.8" depart="36.00" departLane="OrigionS1_0" departPos="5.10" departSpeed="0.00" departDelay="0.00" arrival="192.00" arrivalLane="DestinationW4_1" arrivalPos="242.47" arrivalSpeed="27.76" duration="156.00" routeLength="2089.17" waitSteps="53" timeLoss="80.01" rerouteNo="0" devices="tripinfo_s1-w4_0.8" vType="DEFAULT_VEHTYPE" speedFactor="1.00" vaporized=""/>
    <tripinfo id="s1-w4_0.9" depart="40.00" departLane="OrigionS1_0" departPos="5.10" departSpeed="0.00" departDelay="-0.50" arrival="192.00" arrivalLane="DestinationW4_0" arrivalPos="242.47" arrivalSpeed="26.63" duration="152.00" routeLength="2089.17" waitSteps="48" timeLoss="75.97" rerouteNo="0" devices="tripinfo_s1-w4_0.9" vType="DEFAULT_VEHTYPE" speedFactor="1.00" vaporized=""/>
    <tripinfo id="w4-s1_0.14" depart="63.00" departLane="OrigionW4_0" departPos="5.10" departSpeed="0.00" departDelay="0.00" arrival="192.00" arrivalLane="DestinationS1_0" arrivalPos="373.48" arrivalSpeed="27.71" duration="129.00" routeLength="2089.17" waitSteps="17" timeLoss="53.52" rerouteNo="0" devices="tripinfo_w4-s1_0.14" vType="DEFAULT_VEHTYPE" speedFactor="1.00" vaporized=""/>
    <tripinfo id="w4-s1_0.13" depart="58.00" departLane="OrigionW4_0" departPos="5.10" departSpeed="0.00" departDelay="-0.50" arrival="192.00" arrivalLane="DestinationS1_1" arrivalPos="373.48" arrivalSpeed="26.49" duration="134.00" routeLength="2089.17" waitSteps="23" timeLoss="58.29" rerouteNo="0" devices="tripinfo_w4-s1_0.13" vType="DEFAULT_VEHTYPE" speedFactor="1.00" vaporized=""/>
    <tripinfo id="e5-e1_0.2" depart="15.00" departLane="OrigionE5_0" departPos="5.10" departSpeed="0.00" departDelay="0.00" arrival="192.00" arrivalLane="DestinationE1_0" arrivalPos="250.56" arrivalSpeed="21.83" duration="177.00" routeLength="2162.05" waitSteps="41" timeLoss="68.66" rerouteNo="0" devices="tripinfo_e5-e1_0.2" vType="DEFAULT_VEHTYPE" speedFactor="1.00" vaporized=""/>
    <tripinfo id="w4-s1_0.15" depart="67.00" departLane="OrigionW4_0" departPos="5.10" departSpeed="0.00" departDelay="-0.50" arrival="193.00" arrivalLane="DestinationS1_1" arrivalPos="373.48" arrivalSpeed="27.01" duration="126.00" routeLength="2089.17" waitSteps="16" timeLoss="50.77" rerouteNo="0" devices="tripinfo_w4-s1_0.15" vType="DEFAULT_VEHTYPE" speedFactor="1.00" vaporized=""/>
    <tripinfo id="s1-w4_0.12" depart="54.00" departLane="OrigionS1_0" departPos="5.10" departSpeed="0.00" departDelay="0.00" arrival="194.00" arrivalLane="DestinationW4_1" arrivalPos="242.47" arrivalSpeed="27.05" duration="140.00" routeLength="2089.17" waitSteps="33" timeLoss="64.25" rerouteNo="0" devices="tripinfo_s1-w4_0.12" vType="DEFAULT_VEHTYPE" speedFactor="1.00" vaporized=""/>
    <tripinfo id="s1-w4_0.13" depart="58.00" departLane="OrigionS1_0" departPos="5.10" departSpeed="0.00" departDelay="-0.50" arrival="194.00" arrivalLane="DestinationW4_0" arrivalPos="242.47" arrivalSpeed="27.00" duration="136.00" routeLength="2089.17" waitSteps="30" timeLoss="60.59" rerouteNo="0" devices="tripinfo_s1-w4_0.13" vType="DEFAULT_VEHTYPE" speedFactor="1.00" vaporized=""/>
    <tripinfo id="w4-s1_0.16" depart="72.00" departLane="OrigionW4_0" departPos="5.10" departSpeed="0.00" departDelay="0.00" arrival="194.00" arrivalLane="DestinationS1_0" arrivalPos="373.48" arrivalSpeed="26.94" duration="122.00" routeLength="2089.17" waitSteps="13" timeLoss="46.07" rerouteNo="0" devices="tripinfo_w4-s1_0.16" vType="DEFAULT_VEHTYPE" speedFactor="1.00" vaporized=""/>
    <tripinfo id="s1-w4_0.14" depart="63.00" departLane="OrigionS1_0" departPos="5.10" departSpeed="0.00" departDelay="0.00" arrival="195.00" arrivalLane="DestinationW4_1" arrivalPos="242.47" arrivalSpeed="27.62" duration="132.00" routeLength="2089.17" waitSteps="29" timeLoss="56.72" rerouteNo="0" devices="tripinfo_s1-w4_0.14" vType="DEFAULT_VEHTYPE" speedFactor="1.00" vaporized=""/>
    <tripinfo id="w4-s1_0.18" depart="81.00" departLane="OrigionW4_0" departPos="5.10" departSpeed="0.00" departDelay="0.00" arrival="195.00" arrivalLane="DestinationS1_0" arrivalPos="373.48" arrivalSpeed="26.61" duration="114.00" routeLength="2089.17" waitSteps="11" timeLoss="38.69" rerouteNo="0" devices="tripinfo_w4-s1_0.18" vType="DEFAULT_VEHTYPE" speedFactor="1.00" vaporized=""/>
    <tripinfo id="w4-s1_0.17" depart="76.00" departLane="OrigionW4_0" departPos="5.10" departSpeed="0.00" departDelay="-0.50" arrival="195.00" arrivalLane="DestinationS1_1" arrivalPos="373.48" arrivalSpeed="27.18" duration="119.00" routeLength="2089.17" waitSteps="13" timeLoss="43.42" rerouteNo="0" devices="tripinfo_w4-s1_0.17" vType="DEFAULT_VEHTYPE" speedFactor="1.00" vaporized=""/>
    <tripinfo id="s1-w4_0.15" depart="67.00" departLane="OrigionS1_0" departPos="5.10" departSpeed="0.00" departDelay="-0.50" arrival="196.00" arrivalLane="DestinationW4_0" arrivalPos="242.47" arrivalSpeed="27.19" duration="129.00" routeLength="2089.17" waitSteps="29" timeLoss="53.17" rerouteNo="0" devices="tripinfo_s1-w4_0.15" vType="DEFAULT_VEHTYPE" speedFactor="1.00" vaporized=""/>
    <tripinfo id="s1-w4_0.16" depart="72.00" departLane="OrigionS1_0" departPos="5.10" departSpeed="0.00" departDelay="0.00" arrival="197.00" arrivalLane="DestinationW4_1" arrivalPos="242.47" arrivalSpeed="27.58" duration="125.00" routeLength="2089.17" waitSteps="29" timeLoss="49.24" rerouteNo="0" devices="tripinfo_s1-w4_0.16" vType="DEFAULT_VEHTYPE" speedFactor="1.00" vaporized=""/>
    <tripinfo id="w4-s1_0.19" depart="85.00" departLane="OrigionW4_0" departPos="5.10" departSpeed="0.00" departDelay="-0.50" arrival="197.00" arrivalLane="DestinationS1_1" arrivalPos="373.48" arrivalSpeed="27.62" duration="112.00" routeLength="2089.17" waitSteps="12" timeLoss="35.96" rerouteNo="0" devices="tripinfo_w4-s1_0.19" vType="DEFAULT_VEHTYPE" speedFactor="1.00" vaporized=""/>
    <tripinfo id="s1-w4_0.17" depart="76.00" departLane="OrigionS1_0" departPos="5.10" departSpeed="0.00" departDelay="-0.50" arrival="198.00" arrivalLane="DestinationW4_0" arrivalPos="242.47" arrivalSpeed="27.07" duration="122.00" routeLength="2089.17" waitSteps="24" timeLoss="45.90" rerouteNo="0" devices="tripinfo_s1-w4_0.17" vType="DEFAULT_VEHTYPE" speedFactor="1.00" vaporized=""/>
    <tripinfo id="s1-w4_0.18" depart="81.00" departLane="OrigionS1_0" departPos="5.10" departSpeed="0.00" departDelay="0.00" arrival="199.00" arrivalLane="DestinationW4_1" arrivalPos="242.47" arrivalSpeed="27.14" duration="118.00" routeLength="2089.17" waitSteps="22" timeLoss="41.95" rerouteNo="0" devices="tripinfo_s1-w4_0.18" vType="DEFAULT_VEHTYPE" speedFactor="1.00" vaporized=""/>
    <tripinfo id="s1-w4_0.24" depart="108.00" departLane="OrigionS1_0" departPos="5.10" departSpeed="0.00" departDelay="0.00" arrival="201.00" arrivalLane="DestinationW4_0" arrivalPos="242.47" arrivalSpeed="27.36" duration="93.00" routeLength="2089.17" waitSteps="2" timeLoss="24.15" rerouteNo="0" devices="tripinfo_s1-w4_0.24" vType="DEFAULT_VEHTYPE" speedFactor="1.00" vaporized=""/>
    <tripinfo id="s1-w4_0.19" depart="85.00" departLane="OrigionS1_0" departPos="5.10" departSpeed="0.00" departDelay="-0.50" arrival="204.00" arrivalLane="DestinationW4_0" arrivalPos="242.47" arrivalSpeed="26.74" duration="119.00" routeLength="2089.17" waitSteps="30" timeLoss="42.99" rerouteNo="0" devices="tripinfo_s1-w4_0.19" vType="DEFAULT_VEHTYPE" speedFactor="1.00" vaporized=""/>
    <tripinfo id="s1-w4_0.20" depart="90.00" departLane="OrigionS1_0" departPos="5.10" departSpeed="0.00" departDelay="0.00" arrival="205.00" arrivalLane="DestinationW4_1" arrivalPos="242.47" arrivalSpeed="26.54" duration="115.00" routeLength="2089.17" waitSteps="20" timeLoss="39.48" rerouteNo="0" devices="tripinfo_s1-w4_0.20" vType="DEFAULT_VEHTYPE" speedFactor="1.00" vaporized=""/>
    <tripinfo id="s4-n5_0.0" depart="0.00" departLane="OrigionS4_0" departPos="5.10" departSpeed="0.00" departDelay="0.00" arrival="206.00" arrivalLane="DestinationN5_0" arrivalPos="178.17" arrivalSpeed="12.89" duration="206.00" routeLength="3209.41" waitSteps="24" timeLoss="63.48" rerouteNo="0" devices="tripinfo_s4-n5_0.0" vType="DEFAULT_VEHTYPE" speedFactor="1.00" vaporized=""/>
    <tripinfo id="s4-n5_0.1" depart="4.00" departLane="OrigionS4_0" departPos="5.10" departSpeed="0.00" departDelay="-0.50" arrival="208.00" arrivalLane="DestinationN5_0" arrivalPos="178.17" arrivalSpeed="13.22" duration="204.00" routeLength="3209.41" waitSteps="21" timeLoss="60.82" rerouteNo="0" devices="tripinfo_s4-n5_0.1" vType="DEFAULT_VEHTYPE" speedFactor="1.00" vaporized=""/>
    <tripinfo id="s6-w5_0.0" depart="0.00" departLane="OrigionS6_0" departPos="5.10" departSpeed="0.00" departDelay="0.00" arrival="214.00" arrivalLane="DestinationW5_0" arrivalPos="259.12" arrivalSpeed="13.41" duration="214.00" routeLength="3323.55" waitSteps="51" timeLoss="84.19" rerouteNo="0" devices="tripinfo_s6-w5_0.0" vType="DEFAULT_VEHTYPE" speedFactor="1.00" vaporized=""/>
    <tripinfo id="n2-s8_0.0" depart="0.00" departLane="OrigionN2_0" departPos="5.10" departSpeed="0.00" departDelay="0.00" arrival="217.00" arrivalLane="DestinationS8_0" arrivalPos="419.24" arrivalSpeed="21.93" duration="217.00" routeLength="3729.72" waitSteps="24" timeLoss="61.85" rerouteNo="0" devices="tripinfo_n2-s8_0.0" vType="DEFAULT_VEHTYPE" speedFactor="1.00" vaporized=""/>
    <tripinfo id="n2-s8_0.1" depart="7.00" departLane="OrigionN2_0" departPos="5.10" departSpeed="0.00" departDelay="-0.50" arrival="218.00" arrivalLane="DestinationS8_0" arrivalPos="419.24" arrivalSpeed="21.34" duration="211.00" routeLength="3729.72" waitSteps="21" timeLoss="56.51" rerouteNo="0" devices="tripinfo_n2-s8_0.1" vType="DEFAULT_VEHTYPE" speedFactor="1.00" vaporized=""/>
    <tripinfo id="s1-w4_0.23" depart="103.00" departLane="OrigionS1_0" departPos="5.10" departSpeed="0.00" departDelay="-0.50" arrival="220.00" arrivalLane="DestinationW4_0" arrivalPos="242.47" arrivalSpeed="27.37" duration="117.00" routeLength="2089.17" waitSteps="10" timeLoss="31.15" rerouteNo="0" devices="tripinfo_s1-w4_0.23" vType="DEFAULT_VEHTYPE" speedFactor="1.00" vaporized=""/>
    <tripinfo id="n2-s8_0.2" depart="15.00" departLane="OrigionN2_0" departPos="5.10" departSpeed="0.00" departDelay="0.00" arrival="220.00" arrivalLane="DestinationS8_0" arrivalPos="419.24" arrivalSpeed="21.61" duration="205.00" routeLength="3729.72" waitSteps="15" timeLoss="50.07" rerouteNo="0" devices="tripinfo_n2-s8_0.2" vType="DEFAULT_VEHTYPE" speedFactor="1.00" vaporized=""/>
    <tripinfo id="n2-s8_0.3" depart="22.00" departLane="OrigionN2_0" departPos="5.10" departSpeed="0.00" departDelay="-0.50" arrival="221.00" arrivalLane="DestinationS8_0" arrivalPos="419.24" arrivalSpeed="22.21" duration="199.00" routeLength="3729.72" waitSteps="13" timeLoss="44.42" rerouteNo="0" devices="tripinfo_n2-s8_0.3" vType="DEFAULT_VEHTYPE" speedFactor="1.00" vaporized=""/>
    <tripinfo id="n2-s8_0.4" depart="30.00" departLane="OrigionN2_0" departPos="5.10" departSpeed="0.00" departDelay="0.00" arrival="223.00" arrivalLane="DestinationS8_0" arrivalPos="419.24" arrivalSpeed="20.92" duration="193.00" routeLength="3729.72" waitSteps="13" timeLoss="38.09" rerouteNo="0" devices="tripinfo_n2-s8_0.4" vType="DEFAULT_VEHTYPE" speedFactor="1.00" vaporized=""/>
    <tripinfo id="e5-e1_0.3" depart="22.00" departLane="OrigionE5_0" departPos="5.10" departSpeed="0.00" departDelay="-0.50" arrival="227.00" arrivalLane="DestinationE1_0" arrivalPos="250.56" arrivalSpeed="20.95" duration="205.00" routeLength="2162.05" waitSteps="62" timeLoss="96.70" rerouteNo="0" devices="tripinfo_e5-e1_0.3" vType="DEFAULT_VEHTYPE" speedFactor="1.00" vaporized=""/>
    <tripinfo id="e5-e1_0.5" depart="37.00" departLane="OrigionE5_0" departPos="5.10" departSpeed="0.00" departDelay="-0.50" arrival="229.00" arrivalLane="DestinationE1_0" arrivalPos="250.56" arrivalSpeed="21.07" duration="192.00" routeLength="2162.05" waitSteps="44" timeLoss="83.37" rerouteNo="0" devices="tripinfo_e5-e1_0.5" vType="DEFAULT_VEHTYPE" speedFactor="1.00" vaporized=""/>
    <tripinfo id="e5-e1_0.6" depart="45.00" departLane="OrigionE5_0" departPos="5.10" departSpeed="0.00" departDelay="0.00" arrival="230.00" arrivalLane="DestinationE1_0" arrivalPos="250.56" arrivalSpeed="21.65" duration="185.00" routeLength="2162.05" waitSteps="40" timeLoss="77.17" rerouteNo="0" devices="tripinfo_e5-e1_0.6" vType="DEFAULT_VEHTYPE" speedFactor="1.00" vaporized=""/>
    <tripinfo id="n4-w2_0.2" depart="9.00" departLane="OrigionN4_0" departPos="5.10" departSpeed="0.00" departDelay="0.00" arrival="231.00" arrivalLane="DestinationW2_0" arrivalPos="782.62" arrivalSpeed="21.00" duration="222.00" routeLength="3590.24" waitSteps="45" timeLoss="77.53" rerouteNo="0" devices="tripinfo_n4-w2_0.2" vType="DEFAULT_VEHTYPE" speedFactor="1.00" vaporized=""/>
    <tripinfo id="e5-e1_0.7" depart="52.00" departLane="OrigionE5_0" departPos="5.10" departSpeed="0.00" departDelay="-0.50" arrival="232.00" arrivalLane="DestinationE1_0" arrivalPos="250.56" arrivalSpeed="22.02" duration="180.00" routeLength="2162.05" waitSteps="39" timeLoss="72.02" rerouteNo="0" devices="tripinfo_e5-e1_0.7" vType="DEFAULT_VEHTYPE" speedFactor="1.00" vaporized=""/>
    <tripinfo id="w7-s7_0.0" depart="3.00" departLane="OrigionW7_0" departPos="5.10" departSpeed="0.00" departDelay="3.00" arrival="234.00" arrivalLane="DestinationS7_0" arrivalPos="133.58" arrivalSpeed="26.87" duration="231.00" routeLength="4156.16" waitSteps="18" timeLoss="52.70" rerouteNo="0" devices="tripinfo_w7-s7_0.0" vType="DEFAULT_VEHTYPE" speedFactor="1.00" vaporized=""/>
    <tripinfo id="e5-e1_0.8" depart="60.00" departLane="OrigionE5_0" departPos="5.10" departSpeed="0.00" departDelay="0.00" arrival="234.00" arrivalLane="DestinationE1_0" arrivalPos="250.56" arrivalSpeed="22.20" duration="174.00" routeLength="2162.05" waitSteps="33" timeLoss="65.76" rerouteNo="0" devices="tripinfo_e5-e1_0.8" vType="DEFAULT_VEHTYPE" speedFactor="1.00" vaporized=""/>
    <tripinfo id="w7-s7_0.1" depart="9.00" departLane="OrigionW7_0" departPos="5.10" departSpeed="0.00" departDelay="1.50" arrival="235.00" arrivalLane="DestinationS7_1" arrivalPos="133.58" arrivalSpeed="27.30" duration="226.00" routeLength="4156.16" waitSteps="15" timeLoss="48.22" rerouteNo="0" devices="tripinfo_w7-s7_0.1" vType="DEFAULT_VEHTYPE" speedFactor="1.00" vaporized=""/>
    <tripinfo id="n4-w2_0.0" depart="0.00" departLane="OrigionN4_0" departPos="5.10" departSpeed="0.00" departDelay="0.00" arrival="235.00" arrivalLane="DestinationW2_0" arrivalPos="782.62" arrivalSpeed="21.62" duration="235.00" routeLength="3590.24" waitSteps="50" timeLoss="80.03" rerouteNo="0" devices="tripinfo_n4-w2_0.0" vType="DEFAULT_VEHTYPE" speedFactor="1.00" vaporized=""/>
    <tripinfo id="e5-e1_0.9" depart="67.00" departLane="OrigionE5_0" departPos="5.10" departSpeed="0.00" departDelay="-0.50" arrival="236.00" arrivalLane="DestinationE1_0" arrivalPos="250.56" arrivalSpeed="22.12" duration="169.00" routeLength="2162.05" waitSteps="28" timeLoss="60.30" rerouteNo="0" devices="tripinfo_e5-e1_0.9" vType="DEFAULT_VEHTYPE" speedFactor="1.00" vaporized=""/>
    <tripinfo id="s6-w5_0.1" depart="4.00" departLane="OrigionS6_0" departPos="5.10" departSpeed="0.00" departDelay="-0.50" arrival="239.00" arrivalLane="DestinationW5_0" arrivalPos="259.12" arrivalSpeed="12.70" duration="235.00" routeLength="3323.55" waitSteps="64" timeLoss="98.93" rerouteNo="0" devices="tripinfo_s6-w5_0.1" vType="DEFAULT_VEHTYPE" speedFactor="1.00" vaporized=""/>
    <tripinfo id="w4-s1_0.22" depart="99.00" departLane="OrigionW4_0" departPos="5.10" departSpeed="0.00" departDelay="0.00" arrival="246.00" arrivalLane="DestinationS1_0" arrivalPos="373.48" arrivalSpeed="27.77" duration="147.00" routeLength="2089.17" waitSteps="39" timeLoss="71.65" rerouteNo="0" devices="tripinfo_w4-s1_0.22" vType="DEFAULT_VEHTYPE" speedFactor="1.00" vaporized=""/>
    <tripinfo id="e3-s5_0.2" depart="18.00" departLane="OrigionE3_0" departPos="5.10" departSpeed="0.00" departDelay="3.00" arrival="247.00" arrivalLane="DestinationS5_0" arrivalPos="746.72" arrivalSpeed="22.11" duration="229.00" routeLength="3631.94" waitSteps="49" timeLoss="90.68" rerouteNo="0" devices="tripinfo_e3-s5_0.2" vType="DEFAULT_VEHTYPE" speedFactor="1.00" vaporized=""/>
    <tripinfo id="w4-s1_0.21" depart="94.00" departLane="OrigionW4_0" departPos="5.10" departSpeed="0.00" departDelay="-0.50" arrival="248.00" arrivalLane="DestinationS1_0" arrivalPos="373.48" arrivalSpeed="27.30" duration="154.00" routeLength="2089.17" waitSteps="45" timeLoss="78.19" rerouteNo="0" devices="tripinfo_w4-s1_0.21" vType="DEFAULT_VEHTYPE" speedFactor="1.00" vaporized=""/>
    <tripinfo id="e3-s5_0.0" depart="3.00" departLane="OrigionE3_0" departPos="5.10" departSpeed="0.00" departDelay="3.00" arrival="248.00" arrivalLane="DestinationS5_0" arrivalPos="746.72" arrivalSpeed="21.25" duration="245.00" routeLength="3631.94" waitSteps="65" timeLoss="107.19" rerouteNo="0" devices="tripinfo_e3-s5_0.0" vType="DEFAULT_VEHTYPE" speedFactor="1.00" vaporized=""/>
    <tripinfo id="w4-s1_0.24" depart="108.00" departLane="OrigionW4_0" departPos="5.10" departSpeed="0.00" departDelay="0.00" arrival="249.00" arrivalLane="DestinationS1_1" arrivalPos="373.48" arrivalSpeed="27.74" duration="141.00" routeLength="2089.17" waitSteps="33" timeLoss="65.06" rerouteNo="0" devices="tripinfo_w4-s1_0.24" vType="DEFAULT_VEHTYPE" speedFactor="1.00" vaporized=""/>
    <tripinfo id="w4-s1_0.20" depart="90.00" departLane="OrigionW4_0" departPos="5.10" departSpeed="0.00" departDelay="0.00" arrival="249.00" arrivalLane="DestinationS1_0" arrivalPos="373.48" arrivalSpeed="26.95" duration="159.00" routeLength="2089.17" waitSteps="54" timeLoss="83.67" rerouteNo="0" devices="tripinfo_w4-s1_0.20" vType="DEFAULT_VEHTYPE" speedFactor="1.00" vaporized=""/>
    <tripinfo id="e5-e1_0.12" depart="90.00" departLane="OrigionE5_0" departPos="5.10" departSpeed="0.00" departDelay="0.00" arrival="249.00" arrivalLane="DestinationE1_0" arrivalPos="250.56" arrivalSpeed="22.18" duration="159.00" routeLength="2162.05" waitSteps="25" timeLoss="57.80" rerouteNo="0" devices="tripinfo_e5-e1_0.12" vType="DEFAULT_VEHTYPE" speedFactor="1.00" vaporized=""/>
    <tripinfo id="w4-s1_0.26" depart="117.00" departLane="OrigionW4_0" departPos="5.10" departSpeed="0.00" departDelay="0.00" arrival="250.00" arrivalLane="DestinationS1_1" arrivalPos="373.48" arrivalSpeed="27.46" duration="133.00" routeLength="2089.17" waitSteps="24" timeLoss="57.73" rerouteNo="0" devices="tripinfo_w4-s1_0.26" vType="DEFAULT_VEHTYPE" speedFactor="1.00" vaporized=""/>