<?xml version="1.0" encoding="UTF-8"?>

<!-- generated on Fri Apr 12 13:45:28 2019 by Eclipse SUMO Version v1_0_1+0999-ba34606b5d
<configuration xmlns:xsi="http://www.w3.org/2001/XMLSchema-instance" xsi:noNamespaceSchemaLocation="http://sumo.dlr.de/xsd/sumoConfiguration.xsd">

    <input>
        <net-file value="Chj_final.net.xml"/>
        <route-files value="Chj_Demand8.rou.xml"/>
        <additional-files value="loops.xml"/>
    </input>

    <output>
        <queue-output value="HTSCTestqueue8.xml"/>
        <summary-output value="HTSCTestsummary8.xml"/>
        <tripinfo-output value="HTSCTesttripinfo8.xml"/>
    </output>

    <time>
        <begin value="0"/>
        <end value="3600"/>
    </time>

    <report>
        <xml-validation value="never"/>
        <duration-log.disable value="true"/>
        <no-step-log value="true"/>
    </report>

    <traci_server>
        <remote-port value="42672"/>
    </traci_server>

    <random_number>
        <seed value="63"/>
    </random_number>

</configuration>
-->

<tripinfos xmlns:xsi="http://www.w3.org/2001/XMLSchema-instance" xsi:noNamespaceSchemaLocation="http://sumo.dlr.de/xsd/tripinfo_file.xsd">
    <tripinfo id="s1-w4_0.0" depart="0.00" departLane="OrigionS1_0" departPos="5.10" departSpeed="0.00" departDelay="0.00" arrival="85.00" arrivalLane="DestinationW4_0" arrivalPos="242.47" arrivalSpeed="27.19" duration="85.00" routeLength="2089.17" waitingTime="0.00" waitingCount="0" stopTime="0.00" timeLoss="8.35" rerouteNo="0" devices="tripinfo_s1-w4_0.0" vType="DEFAULT_VEHTYPE" speedFactor="0.99" vaporized=""/>
    <tripinfo id="w4-s1_0.2" depart="9.00" departLane="OrigionW4_0" departPos="5.10" departSpeed="0.00" departDelay="0.00" arrival="124.00" arrivalLane="DestinationS1_1" arrivalPos="373.48" arrivalSpeed="30.02" duration="115.00" routeLength="2089.17" waitingTime="18.00" waitingCount="1" stopTime="0.00" timeLoss="47.88" rerouteNo="0" devices="tripinfo_w4-s1_0.2" vType="DEFAULT_VEHTYPE" speedFactor="1.13" vaporized=""/>
    <tripinfo id="w4-s1_0.1" depart="4.00" departLane="OrigionW4_0" departPos="5.10" departSpeed="0.00" departDelay="-0.50" arrival="126.00" arrivalLane="DestinationS1_0" arrivalPos="373.48" arrivalSpeed="28.03" duration="122.00" routeLength="2089.17" waitingTime="20.00" waitingCount="1" stopTime="0.00" timeLoss="48.00" rerouteNo="0" devices="tripinfo_w4-s1_0.1" vType="DEFAULT_VEHTYPE" speedFactor="1.02" vaporized=""/>
    <tripinfo id="w4-s1_0.0" depart="0.00" departLane="OrigionW4_0" departPos="5.10" departSpeed="0.00" departDelay="0.00" arrival="128.00" arrivalLane="DestinationS1_0" arrivalPos="373.48" arrivalSpeed="27.53" duration="128.00" routeLength="2089.17" waitingTime="22.00" waitingCount="2" stopTime="0.00" timeLoss="52.36" rerouteNo="0" devices="tripinfo_w4-s1_0.0" vType="DEFAULT_VEHTYPE" speedFactor="1.00" vaporized=""/>
    <tripinfo id="s1-w4_0.3" depart="13.00" departLane="OrigionS1_0" departPos="5.10" departSpeed="0.00" departDelay="-0.50" arrival="129.00" arrivalLane="DestinationW4_1" arrivalPos="242.47" arrivalSpeed="34.17" duration="116.00" routeLength="2089.17" waitingTime="34.00" waitingCount="1" stopTime="0.00" timeLoss="54.89" rerouteNo="0" devices="tripinfo_s1-w4_0.3" vType="DEFAULT_VEHTYPE" speedFactor="1.24" vaporized=""/>
    <tripinfo id="w4-s1_0.3" depart="13.00" departLane="OrigionW4_0" departPos="5.10" departSpeed="0.00" departDelay="-0.50" arrival="130.00" arrivalLane="DestinationS1_1" arrivalPos="373.48" arrivalSpeed="26.09" duration="117.00" routeLength="2089.17" waitingTime="14.00" waitingCount="1" stopTime="0.00" timeLoss="39.19" rerouteNo="0" devices="tripinfo_w4-s1_0.3" vType="DEFAULT_VEHTYPE" speedFactor="0.97" vaporized=""/>
    <tripinfo id="e5-e1_0.0" depart="0.00" departLane="OrigionE5_0" departPos="5.10" departSpeed="0.00" departDelay="0.00" arrival="130.00" arrivalLane="DestinationE1_0" arrivalPos="250.56" arrivalSpeed="22.59" duration="130.00" routeLength="2162.05" waitingTime="8.00" waitingCount="1" stopTime="0.00" timeLoss="27.75" rerouteNo="0" devices="tripinfo_e5-e1_0.0" vType="DEFAULT_VEHTYPE" speedFactor="1.06" vaporized=""/>
    <tripinfo id="e5-e1_0.1" depart="7.00" departLane="OrigionE5_0" departPos="5.10" departSpeed="0.00" departDelay="-0.50" arrival="131.00" arrivalLane="DestinationE1_0" arrivalPos="250.56" arrivalSpeed="25.18" duration="124.00" routeLength="2162.05" waitingTime="8.00" waitingCount="1" stopTime="0.00" timeLoss="35.40" rerouteNo="0" devices="tripinfo_e5-e1_0.1" vType="DEFAULT_VEHTYPE" speedFactor="1.22" vaporized=""/>
    <tripinfo id="s1-w4_0.1" depart="4.00" departLane="OrigionS1_0" departPos="5.10" departSpeed="0.00" departDelay="-0.50" arrival="132.00" arrivalLane="DestinationW4_0" arrivalPos="242.47" arrivalSpeed="26.70" duration="128.00" routeLength="2089.17" waitingTime="35.00" waitingCount="1" stopTime="0.00" timeLoss="52.61" rerouteNo="0" devices="tripinfo_s1-w4_0.1" vType="DEFAULT_VEHTYPE" speedFactor="1.00" vaporized=""/>
    <tripinfo id="w4-s1_0.4" depart="18.00" departLane="OrigionW4_0" departPos="5.10" departSpeed="0.00" departDelay="0.00" arrival="132.00" arrivalLane="DestinationS1_0" arrivalPos="373.48" arrivalSpeed="25.10" duration="114.00" routeLength="2089.17" waitingTime="14.00" waitingCount="1" stopTime="0.00" timeLoss="33.18" rerouteNo="0" devices="tripinfo_w4-s1_0.4" vType="DEFAULT_VEHTYPE" speedFactor="0.94" vaporized=""/>
    <tripinfo id="w4-s1_0.5" depart="22.00" departLane="OrigionW4_0" departPos="5.10" departSpeed="0.00" departDelay="-0.50" arrival="132.00" arrivalLane="DestinationS1_1" arrivalPos="373.48" arrivalSpeed="26.23" duration="110.00" routeLength="2089.17" waitingTime="12.00" waitingCount="1" stopTime="0.00" timeLoss="32.10" rerouteNo="0" devices="tripinfo_w4-s1_0.5" vType="DEFAULT_VEHTYPE" speedFactor="0.97" vaporized=""/>
    <tripinfo id="s1-w4_0.4" depart="18.00" departLane="OrigionS1_0" departPos="5.10" departSpeed="0.00" departDelay="0.00" arrival="135.00" arrivalLane="DestinationW4_0" arrivalPos="242.47" arrivalSpeed="25.86" duration="117.00" routeLength="2089.17" waitingTime="19.00" waitingCount="1" stopTime="0.00" timeLoss="36.97" rerouteNo="0" devices="tripinfo_s1-w4_0.4" vType="DEFAULT_VEHTYPE" speedFactor="0.95" vaporized=""/>
    <tripinfo id="s1-w4_0.2" depart="9.00" departLane="OrigionS1_0" departPos="5.10" departSpeed="0.00" departDelay="0.00" arrival="135.00" arrivalLane="DestinationW4_1" arrivalPos="242.47" arrivalSpeed="25.28" duration="126.00" routeLength="2089.17" waitingTime="27.00" waitingCount="1" stopTime="0.00" timeLoss="45.04" rerouteNo="0" devices="tripinfo_s1-w4_0.2" vType="DEFAULT_VEHTYPE" speedFactor="0.93" vaporized=""/>
    <tripinfo id="s1-w4_0.5" depart="22.00" departLane="OrigionS1_0" departPos="5.10" departSpeed="0.00" departDelay="-0.50" arrival="137.00" arrivalLane="DestinationW4_1" arrivalPos="242.47" arrivalSpeed="29.50" duration="115.00" routeLength="2089.17" waitingTime="18.00" waitingCount="1" stopTime="0.00" timeLoss="43.47" rerouteNo="0" devices="tripinfo_s1-w4_0.5" vType="DEFAULT_VEHTYPE" speedFactor="1.06" vaporized=""/>
    <tripinfo id="s1-w4_0.6" depart="27.00" departLane="OrigionS1_0" departPos="5.10" departSpeed="0.00" departDelay="0.00" arrival="144.00" arrivalLane="DestinationW4_0" arrivalPos="242.47" arrivalSpeed="27.90" duration="117.00" routeLength="2089.17" waitingTime="30.00" waitingCount="1" stopTime="0.00" timeLoss="50.91" rerouteNo="0" devices="tripinfo_s1-w4_0.6" vType="DEFAULT_VEHTYPE" speedFactor="1.14" vaporized=""/>
    <tripinfo id="s1-w4_0.7" depart="31.00" departLane="OrigionS1_0" departPos="5.10" departSpeed="0.00" departDelay="-0.50" arrival="144.00" arrivalLane="DestinationW4_1" arrivalPos="242.47" arrivalSpeed="27.11" duration="113.00" routeLength="2089.17" waitingTime="19.00" waitingCount="1" stopTime="0.00" timeLoss="37.68" rerouteNo="0" devices="tripinfo_s1-w4_0.7" vType="DEFAULT_VEHTYPE" speedFactor="1.01" vaporized=""/>
    <tripinfo id="s1-w4_0.9" depart="40.00" departLane="OrigionS1_0" departPos="5.10" departSpeed="0.00" departDelay="-0.50" arrival="145.00" arrivalLane="DestinationW4_1" arrivalPos="242.47" arrivalSpeed="27.55" duration="105.00" routeLength="2089.17" waitingTime="12.00" waitingCount="1" stopTime="0.00" timeLoss="32.07" rerouteNo="0" devices="tripinfo_s1-w4_0.9" vType="DEFAULT_VEHTYPE" speedFactor="1.04" vaporized=""/>
    <tripinfo id="s6-w5_0.0" depart="0.00" departLane="OrigionS6_0" departPos="5.10" departSpeed="0.00" departDelay="0.00" arrival="167.00" arrivalLane="DestinationW5_0" arrivalPos="259.12" arrivalSpeed="12.98" duration="167.00" routeLength="3323.55" waitingTime="13.00" waitingCount="1" stopTime="0.00" timeLoss="38.67" rerouteNo="0" devices="tripinfo_s6-w5_0.0" vType="DEFAULT_VEHTYPE" speedFactor="1.01" vaporized=""/>
    <tripinfo id="w4-s1_0.8" depart="36.00" departLane="OrigionW4_0" departPos="5.10" departSpeed="0.00" departDelay="0.00" arrival="186.00" arrivalLane="DestinationS1_0" arrivalPos="373.48" arrivalSpeed="27.77" duration="150.00" routeLength="2089.17" waitingTime="45.00" waitingCount="2" stopTime="0.00" timeLoss="75.47" rerouteNo="0" devices="tripinfo_w4-s1_0.8" vType="DEFAULT_VEHTYPE" speedFactor="1.02" vaporized=""/>
    <tripinfo id="s1-w4_0.11" depart="49.00" departLane="OrigionS1_0" departPos="5.10" departSpeed="0.00" departDelay="-0.50" arrival="190.00" arrivalLane="DestinationW4_1" arrivalPos="242.47" arrivalSpeed="30.46" duration="141.00" routeLength="2089.17" waitingTime="42.00" waitingCount="2" stopTime="0.00" timeLoss="74.69" rerouteNo="0" devices="tripinfo_s1-w4_0.11" vType="DEFAULT_VEHTYPE" speedFactor="1.14" vaporized=""/>
    <tripinfo id="w4-s1_0.6" depart="27.00" departLane="OrigionW4_0" departPos="5.10" departSpeed="0.00" departDelay="0.00" arrival="190.00" arrivalLane="DestinationS1_1" arrivalPos="373.48" arrivalSpeed="24.84" duration="163.00" routeLength="2089.17" waitingTime="54.00" waitingCount="2" stopTime="0.00" timeLoss="79.04" rerouteNo="0" devices="tripinfo_w4-s1_0.6" vType="DEFAULT_VEHTYPE" speedFactor="0.91" vaporized=""/>
    <tripinfo id="s1-w4_0.8" depart="36.00" departLane="OrigionS1_0" departPos="5.10" departSpeed="0.00" departDelay="0.00" arrival="191.00" arrivalLane="DestinationW4_0" arrivalPos="242.47" arrivalSpeed="30.87" duration="155.00" routeLength="2089.17" waitingTime="53.00" waitingCount="2" stopTime="0.00" timeLoss="87.69" rerouteNo="0" devices="tripinfo_s1-w4_0.8" vType="DEFAULT_VEHTYPE" speedFactor="1.13" vaporized=""/>
    <tripinfo id="w4-s1_0.9" depart="40.00" departLane="OrigionW4_0" departPos="5.10" departSpeed="0.00" departDelay="-0.50" arrival="191.00" arrivalLane="DestinationS1_1" arrivalPos="373.48" arrivalSpeed="26.06" duration="151.00" routeLength="2089.17" waitingTime="42.00" waitingCount="2" stopTime="0.00" timeLoss="78.27" rerouteNo="0" devices="tripinfo_w4-s1_0.9" vType="DEFAULT_VEHTYPE" speedFactor="1.04" vaporized=""/>
    <tripinfo id="e5-e1_0.2" depart="15.00" departLane="OrigionE5_0" departPos="5.10" departSpeed="0.00" departDelay="0.00" arrival="192.00" arrivalLane="DestinationE1_0" arrivalPos="250.56" arrivalSpeed="22.00" duration="177.00" routeLength="2162.05" waitingTime="43.00" waitingCount="2" stopTime="0.00" timeLoss="70.38" rerouteNo="0" devices="tripinfo_e5-e1_0.2" vType="DEFAULT_VEHTYPE" speedFactor="1.02" vaporized=""/>
    <tripinfo id="w4-s1_0.10" depart="45.00" departLane="OrigionW4_0" departPos="5.10" departSpeed="0.00" departDelay="0.00" arrival="193.00" arrivalLane="DestinationS1_1" arrivalPos="373.48" arrivalSpeed="28.67" duration="148.00" routeLength="2089.17" waitingTime="38.00" waitingCount="2" stopTime="0.00" timeLoss="74.77" rerouteNo="0" devices="tripinfo_w4-s1_0.10" vType="DEFAULT_VEHTYPE" speedFactor="1.04" vaporized=""/>
    <tripinfo id="w4-s1_0.7" depart="31.00" departLane="OrigionW4_0" departPos="5.10" departSpeed="0.00" departDelay="-0.50" arrival="193.00" arrivalLane="DestinationS1_0" arrivalPos="373.48" arrivalSpeed="22.44" duration="162.00" routeLength="2089.17" waitingTime="44.00" waitingCount="2" stopTime="0.00" timeLoss="73.79" rerouteNo="0" devices="tripinfo_w4-s1_0.7" vType="DEFAULT_VEHTYPE" speedFactor="0.85" vaporized=""/>
    <tripinfo id="s1-w4_0.12" depart="54.00" departLane="OrigionS1_0" departPos="5.10" departSpeed="0.00" departDelay="0.00" arrival="194.00" arrivalLane="DestinationW4_1" arrivalPos="242.47" arrivalSpeed="26.53" duration="140.00" routeLength="2089.17" waitingTime="35.00" waitingCount="1" stopTime="0.00" timeLoss="64.42" rerouteNo="0" devices="tripinfo_s1-w4_0.12" vType="DEFAULT_VEHTYPE" speedFactor="1.00" vaporized=""/>
    <tripinfo id="w4-s1_0.13" depart="58.00" departLane="OrigionW4_0" departPos="5.10" departSpeed="0.00" departDelay="-0.50" arrival="194.00" arrivalLane="DestinationS1_1" arrivalPos="373.48" arrivalSpeed="27.87" duration="136.00" routeLength="2089.17" waitingTime="26.00" waitingCount="2" stopTime="0.00" timeLoss="61.56" rerouteNo="0" devices="tripinfo_w4-s1_0.13" vType="DEFAULT_VEHTYPE" speedFactor="1.02" vaporized=""/>
    <tripinfo id="w4-s1_0.14" depart="63.00" departLane="OrigionW4_0" departPos="5.10" departSpeed="0.00" departDelay="0.00" arrival="195.00" arrivalLane="DestinationS1_1" arrivalPos="373.48" arrivalSpeed="28.70" duration="132.00" routeLength="2089.17" waitingTime="21.00" waitingCount="2" stopTime="0.00" timeLoss="61.98" rerouteNo="0" devices="tripinfo_w4-s1_0.14" vType="DEFAULT_VEHTYPE" speedFactor="1.07" vaporized=""/>
    <tripinfo id="w4-s1_0.11" depart="49.00" departLane="OrigionW4_0" departPos="5.10" departSpeed="0.00" departDelay="-0.50" arrival="195.00" arrivalLane="DestinationS1_0" arrivalPos="373.48" arrivalSpeed="25.50" duration="146.00" routeLength="2089.17" waitingTime="31.00" waitingCount="2" stopTime="0.00" timeLoss="79.28" rerouteNo="0" devices="tripinfo_w4-s1_0.11" vType="DEFAULT_VEHTYPE" speedFactor="1.13" vaporized=""/>
    <tripinfo id="s1-w4_0.13" depart="58.00" departLane="OrigionS1_0" departPos="5.10" departSpeed="0.00" departDelay="-0.50" arrival="196.00" arrivalLane="DestinationW4_1" arrivalPos="242.47" arrivalSpeed="29.12" duration="138.00" routeLength="2089.17" waitingTime="35.00" waitingCount="1" stopTime="0.00" timeLoss="67.37" rerouteNo="0" devices="tripinfo_s1-w4_0.13" vType="DEFAULT_VEHTYPE" speedFactor="1.08" vaporized=""/>
    <tripinfo id="w4-s1_0.16" depart="72.00" departLane="OrigionW4_0" departPos="5.10" departSpeed="0.00" departDelay="0.00" arrival="197.00" arrivalLane="DestinationS1_1" arrivalPos="373.48" arrivalSpeed="30.50" duration="125.00" routeLength="2089.17" waitingTime="13.00" waitingCount="1" stopTime="0.00" timeLoss="58.64" rerouteNo="0" devices="tripinfo_w4-s1_0.16" vType="DEFAULT_VEHTYPE" speedFactor="1.14" vaporized=""/>
    <tripinfo id="w4-s1_0.12" depart="54.00" departLane="OrigionW4_0" departPos="5.10" departSpeed="0.00" departDelay="0.00" arrival="197.00" arrivalLane="DestinationS1_0" arrivalPos="373.48" arrivalSpeed="22.85" duration="143.00" routeLength="2089.17" waitingTime="21.00" waitingCount="2" stopTime="0.00" timeLoss="54.58" rerouteNo="0" devices="tripinfo_w4-s1_0.12" vType="DEFAULT_VEHTYPE" speedFactor="0.86" vaporized=""/>
    <tripinfo id="s1-w4_0.10" depart="45.00" departLane="OrigionS1_0" departPos="5.10" departSpeed="0.00" departDelay="0.00" arrival="198.00" arrivalLane="DestinationW4_0" arrivalPos="242.47" arrivalSpeed="22.97" duration="153.00" routeLength="2089.17" waitingTime="31.00" waitingCount="1" stopTime="0.00" timeLoss="62.09" rerouteNo="0" devices="tripinfo_s1-w4_0.10" vType="DEFAULT_VEHTYPE" speedFactor="0.83" vaporized=""/>
    <tripinfo id="w4-s1_0.17" depart="76.00" departLane="OrigionW4_0" departPos="5.10" departSpeed="0.00" departDelay="-0.50" arrival="198.00" arrivalLane="DestinationS1_1" arrivalPos="373.48" arrivalSpeed="29.61" duration="122.00" routeLength="2089.17" waitingTime="12.00" waitingCount="1" stopTime="0.00" timeLoss="55.15" rerouteNo="0" devices="tripinfo_w4-s1_0.17" vType="DEFAULT_VEHTYPE" speedFactor="1.13" vaporized=""/>
    <tripinfo id="w4-s1_0.15" depart="67.00" departLane="OrigionW4_0" departPos="5.10" departSpeed="0.00" departDelay="-0.50" arrival="198.00" arrivalLane="DestinationS1_0" arrivalPos="373.48" arrivalSpeed="25.63" duration="131.00" routeLength="2089.17" waitingTime="11.00" waitingCount="1" stopTime="0.00" timeLoss="55.96" rerouteNo="0" devices="tripinfo_w4-s1_0.15" vType="DEFAULT_VEHTYPE" speedFactor="1.00" vaporized=""/>
    <tripinfo id="s1-w4_0.15" depart="67.00" departLane="OrigionS1_0" departPos="5.10" departSpeed="0.00" departDelay="-0.50" arrival="199.00" arrivalLane="DestinationW4_0" arrivalPos="242.47" arrivalSpeed="25.48" duration="132.00" routeLength="2089.17" waitingTime="26.00" waitingCount="2" stopTime="0.00" timeLoss="52.38" rerouteNo="0" devices="tripinfo_s1-w4_0.15" vType="DEFAULT_VEHTYPE" speedFactor="0.95" vaporized=""/>
    <tripinfo id="s1-w4_0.16" depart="72.00" departLane="OrigionS1_0" departPos="5.10" departSpeed="0.00" departDelay="0.00" arrival="199.00" arrivalLane="DestinationW4_1" arrivalPos="242.47" arrivalSpeed="25.45" duration="127.00" routeLength="2089.17" waitingTime="27.00" waitingCount="1" stopTime="0.00" timeLoss="48.05" rerouteNo="0" devices="tripinfo_s1-w4_0.16" vType="DEFAULT_VEHTYPE" speedFactor="0.96" vaporized=""/>
    <tripinfo id="w4-s1_0.18" depart="81.00" departLane="OrigionW4_0" departPos="5.10" departSpeed="0.00" departDelay="0.00" arrival="200.00" arrivalLane="DestinationS1_1" arrivalPos="373.48" arrivalSpeed="30.92" duration="119.00" routeLength="2089.17" waitingTime="8.00" waitingCount="1" stopTime="0.00" timeLoss="52.20" rerouteNo="0" devices="tripinfo_w4-s1_0.18" vType="DEFAULT_VEHTYPE" speedFactor="1.14" vaporized=""/>
    <tripinfo id="w4-s1_0.19" depart="85.00" departLane="OrigionW4_0" departPos="5.10" departSpeed="0.00" departDelay="-0.50" arrival="200.00" arrivalLane="DestinationS1_0" arrivalPos="373.48" arrivalSpeed="29.09" duration="115.00" routeLength="2089.17" waitingTime="10.00" waitingCount="1" stopTime="0.00" timeLoss="49.43" rerouteNo="0" devices="tripinfo_w4-s1_0.19" vType="DEFAULT_VEHTYPE" speedFactor="1.16" vaporized=""/>
    <tripinfo id="s1-w4_0.17" depart="76.00" departLane="OrigionS1_0" departPos="5.10" departSpeed="0.00" departDelay="-0.50" arrival="201.00" arrivalLane="DestinationW4_1" arrivalPos="242.47" arrivalSpeed="26.03" duration="125.00" routeLength="2089.17" waitingTime="24.00" waitingCount="1" stopTime="0.00" timeLoss="44.22" rerouteNo="0" devices="tripinfo_s1-w4_0.17" vType="DEFAULT_VEHTYPE" speedFactor="0.94" vaporized=""/>
    <tripinfo id="s1-w4_0.19" depart="85.00" departLane="OrigionS1_0" departPos="5.10" departSpeed="0.00" departDelay="-0.50" arrival="202.00" arrivalLane="DestinationW4_1" arrivalPos="242.47" arrivalSpeed="26.26" duration="117.00" routeLength="2089.17" waitingTime="20.00" waitingCount="2" stopTime="0.00" timeLoss="47.77" rerouteNo="0" devices="tripinfo_s1-w4_0.19" vType="DEFAULT_VEHTYPE" speedFactor="1.09" vaporized=""/>
    <tripinfo id="w2-n6_0.0" depart="0.00" departLane="OrigionW2_0" departPos="5.10" departSpeed="0.00" departDelay="0.00" arrival="202.00" arrivalLane="DestinationN6_0" arrivalPos="784.86" arrivalSpeed="23.64" duration="202.00" routeLength="4002.77" waitingTime="26.00" waitingCount="1" stopTime="0.00" timeLoss="57.91" rerouteNo="0" devices="tripinfo_w2-n6_0.0" vType="DEFAULT_VEHTYPE" speedFactor="1.10" vaporized=""/>
    <tripinfo id="s1-w4_0.18" depart="81.00" departLane="OrigionS1_0" departPos="5.10" departSpeed="0.00" departDelay="0.00" arrival="203.00" arrivalLane="DestinationW4_1" arrivalPos="242.47" arrivalSpeed="25.70" duration="122.00" routeLength="2089.17" waitingTime="19.00" waitingCount="1" stopTime="0.00" timeLoss="42.84" rerouteNo="0" devices="tripinfo_s1-w4_0.18" vType="DEFAULT_VEHTYPE" speedFactor="0.95" vaporized=""/>
    <tripinfo id="s1-w4_0.14" depart="63.00" departLane="OrigionS1_0" departPos="5.10" departSpeed="0.00" departDelay="0.00" arrival="206.00" arrivalLane="DestinationW4_0" arrivalPos="242.47" arrivalSpeed="19.70" duration="143.00" routeLength="2089.17" waitingTime="20.00" waitingCount="1" stopTime="0.00" timeLoss="38.04" rerouteNo="0" devices="tripinfo_s1-w4_0.14" vType="DEFAULT_VEHTYPE" speedFactor="0.72" vaporized=""/>
    <tripinfo id="w8-e4_0.0" depart="0.00" departLane="OrigionW8_0" departPos="5.10" departSpeed="0.00" departDelay="0.00" arrival="207.00" arrivalLane="DestinationE4_0" arrivalPos="384.36" arrivalSpeed="25.56" duration="207.00" routeLength="3459.08" waitingTime="30.00" waitingCount="3" stopTime="0.00" timeLoss="76.55" rerouteNo="0" devices="tripinfo_w8-e4_0.0" vType="DEFAULT_VEHTYPE" speedFactor="1.20" vaporized=""/>
    <tripinfo id="n2-s8_0.0" depart="0.00" departLane="OrigionN2_0" departPos="5.10" departSpeed="0.00" departDelay="0.00" arrival="216.00" arrivalLane="DestinationS8_0" arrivalPos="419.24" arrivalSpeed="21.94" duration="216.00" routeLength="3729.72" waitingTime="28.00" waitingCount="2" stopTime="0.00" timeLoss="64.30" rerouteNo="0" devices="tripinfo_n2-s8_0.0" vType="DEFAULT_VEHTYPE" speedFactor="1.02" vaporized=""/>
    <tripinfo id="s4-n5_0.0" depart="0.00" departLane="OrigionS4_0" departPos="5.10" departSpeed="0.00" departDelay="0.00" arrival="218.00" arrivalLane="DestinationN5_0" arrivalPos="178.17" arrivalSpeed="11.94" duration="218.00" routeLength="3209.41" waitingTime="22.00" waitingCount="2" stopTime="0.00" timeLoss="61.42" rerouteNo="0" devices="tripinfo_s4-n5_0.0" vType="DEFAULT_VEHTYPE" speedFactor="0.91" vaporized=""/>
    <tripinfo id="n2-s8_0.1" depart="7.00" departLane="OrigionN2_0" departPos="5.10" departSpeed="0.00" departDelay="-0.50" arrival="219.00" arrivalLane="DestinationS8_0" arrivalPos="419.24" arrivalSpeed="21.41" duration="212.00" routeLength="3729.72" waitingTime="21.00" waitingCount="2" stopTime="0.00" timeLoss="54.66" rerouteNo="0" devices="tripinfo_n2-s8_0.1" vType="DEFAULT_VEHTYPE" speedFactor="0.98" vaporized=""/>
    <tripinfo id="n2-s8_0.2" depart="15.00" departLane="OrigionN2_0" departPos="5.10" departSpeed="0.00" departDelay="0.00" arrival="220.00" arrivalLane="DestinationS8_0" arrivalPos="419.24" arrivalSpeed="22.38" duration="205.00" routeLength="3729.72" waitingTime="17.00" waitingCount="2" stopTime="0.00" timeLoss="70.60" rerouteNo="0" devices="tripinfo_n2-s8_0.2" vType="DEFAULT_VEHTYPE" speedFactor="1.15" vaporized=""/>
    <tripinfo id="n2-s8_0.3" depart="22.00" departLane="OrigionN2_0" departPos="5.10" departSpeed="0.00" departDelay="-0.50" arrival="222.00" arrivalLane="DestinationS8_0" arrivalPos="419.24" arrivalSpeed="24.80" duration="200.00" routeLength="3729.72" waitingTime="14.00" waitingCount="1" stopTime="0.00" timeLoss="71.58" rerouteNo="0" devices="tripinfo_n2-s8_0.3" vType="DEFAULT_VEHTYPE" speedFactor="1.21" vaporized=""/>
    <tripinfo id="n2-s8_0.4" depart="30.00" departLane="OrigionN2_0" departPos="5.10" departSpeed="0.00" departDelay="0.00" arrival="223.00" arrivalLane="DestinationS8_0" arrivalPos="419.24" arrivalSpeed="23.22" duration="193.00" routeLength="3729.72" waitingTime="13.00" waitingCount="1" stopTime="0.00" timeLoss="48.20" rerouteNo="0" devices="tripinfo_n2-s8_0.4" vType="DEFAULT_VEHTYPE" speedFactor="1.07" vaporized=""/>
    <tripinfo id="e5-e1_0.3" depart="22.00" departLane="OrigionE5_0" departPos="5.10" departSpeed="0.00" departDelay="-0.50" arrival="227.00" arrivalLane="DestinationE1_0" arrivalPos="250.56" arrivalSpeed="23.44" duration="205.00" routeLength="2162.05" waitingTime="63.00" waitingCount="3" stopTime="0.00" timeLoss="103.59" rerouteNo="0" devices="tripinfo_e5-e1_0.3" vType="DEFAULT_VEHTYPE" speedFactor="1.07" vaporized=""/>
    <tripinfo id="e5-e1_0.4" depart="30.00" departLane="OrigionE5_0" departPos="5.10" departSpeed="0.00" departDelay="0.00" arrival="231.00" arrivalLane="DestinationE1_0" arrivalPos="250.56" arrivalSpeed="19.58" duration="201.00" routeLength="2162.05" waitingTime="46.00" waitingCount="3" stopTime="0.00" timeLoss="79.61" rerouteNo="0" devices="tripinfo_e5-e1_0.4" vType="DEFAULT_VEHTYPE" speedFactor="0.89" vaporized=""/>
    <tripinfo id="e5-e1_0.5" depart="37.00" departLane="OrigionE5_0" departPos="5.10" departSpeed="0.00" departDelay="-0.50" arrival="232.00" arrivalLane="DestinationE1_0" arrivalPos="250.56" arrivalSpeed="18.28" duration="195.00" routeLength="2162.05" waitingTime="41.00" waitingCount="3" stopTime="0.00" timeLoss="71.93" rerouteNo="0" devices="tripinfo_e5-e1_0.5" vType="DEFAULT_VEHTYPE" speedFactor="0.88" vaporized=""/>
    <tripinfo id="n4-w2_0.1" depart="4.00" departLane="OrigionN4_0" departPos="5.10" departSpeed="0.00" departDelay="-0.50" arrival="233.00" arrivalLane="DestinationW2_0" arrivalPos="782.62" arrivalSpeed="22.74" duration="229.00" routeLength="3590.24" waitingTime="48.00" waitingCount="2" stopTime="0.00" timeLoss="83.16" rerouteNo="0" devices="tripinfo_n4-w2_0.1" vType="DEFAULT_VEHTYPE" speedFactor="1.06" vaporized=""/>
    <tripinfo id="e5-e1_0.6" depart="45.00" departLane="OrigionE5_0" departPos="5.10" departSpeed="0.00" departDelay="0.00" arrival="234.00" arrivalLane="DestinationE1_0" arrivalPos="250.56" arrivalSpeed="22.33" duration="189.00" routeLength="2162.05" waitingTime="40.00" waitingCount="3" stopTime="0.00" timeLoss="89.72" rerouteNo="0" devices="tripinfo_e5-e1_0.6" vType="DEFAULT_VEHTYPE" speedFactor="1.09" vaporized=""/>
    <tripinfo id="e5-e1_0.7" depart="52.00" departLane="OrigionE5_0" departPos="5.10" departSpeed="0.00" departDelay="-0.50" arrival="235.00" arrivalLane="DestinationE1_0" arrivalPos="250.56" arrivalSpeed="21.96" duration="183.00" routeLength="2162.05" waitingTime="37.00" waitingCount="2" stopTime="0.00" timeLoss="87.53" rerouteNo="0" devices="tripinfo_e5-e1_0.7" vType="DEFAULT_VEHTYPE" speedFactor="1.13" vaporized=""/>
    <tripinfo id="e5-e1_0.8" depart="60.00" departLane="OrigionE5_0" departPos="5.10" departSpeed="0.00" departDelay="0.00" arrival="237.00" arrivalLane="DestinationE1_0" arrivalPos="250.56" arrivalSpeed="23.36" duration="177.00" routeLength="2162.05" waitingTime="35.00" waitingCount="2" stopTime="0.00" timeLoss="77.11" rerouteNo="0" devices="tripinfo_e5-e1_0.8" vType="DEFAULT_VEHTYPE" speedFactor="1.09" vaporized=""/>
    <tripinfo id="w7-s2_0.0" depart="0.00" departLane="OrigionW7_0" departPos="5.10" departSpeed="0.00" departDelay="0.00" arrival="243.00" arrivalLane="DestinationS2_0" arrivalPos="805.81" arrivalSpeed="12.98" duration="243.00" routeLength="3111.60" waitingTime="17.00" waitingCount="1" stopTime="0.00" timeLoss="45.30" rerouteNo="0" devices="tripinfo_w7-s2_0.0" vType="DEFAULT_VEHTYPE" speedFactor="1.02" vaporized=""/>
    <tripinfo id="w4-s1_0.21" depart="94.00" departLane="OrigionW4_0" departPos="5.10" departSpeed="0.00" departDelay="-0.50" arrival="245.00" arrivalLane="DestinationS1_1" arrivalPos="373.48" arrivalSpeed="30.47" duration="151.00" routeLength="2089.17" waitingTime="50.00" waitingCount="2" stopTime="0.00" timeLoss="82.01" rerouteNo="0" devices="tripinfo_w4-s1_0.21" vType="DEFAULT_VEHTYPE" speedFactor="1.10" vaporized=""/>
    <tripinfo id="w4-s1_0.20" depart="90.00" departLane="OrigionW4_0" departPos="5.10" departSpeed="0.00" departDelay="0.00" arrival="245.00" arrivalLane="DestinationS1_0" arrivalPos="373.48" arrivalSpeed="29.09" duration="155.00" routeLength="2089.17" waitingTime="55.00" waitingCount="2" stopTime="0.00" timeLoss="84.80" rerouteNo="0" devices="tripinfo_w4-s1_0.20" vType="DEFAULT_VEHTYPE" speedFactor="1.08" vaporized=""/>
    <tripinfo id="w4-s1_0.23" depart="103.00" departLane="OrigionW4_0" departPos="5.10" departSpeed="0.00" departDelay="-0.50" arrival="249.00" arrivalLane="DestinationS1_1" arrivalPos="373.48" arrivalSpeed="26.29" duration="146.00" routeLength="2089.17" waitingTime="35.00" waitingCount="2" stopTime="0.00" timeLoss="68.73" rerouteNo="0" devices="tripinfo_w4-s1_0.23" vType="DEFAULT_VEHTYPE" speedFactor="0.97" vaporized=""/>
    <tripinfo id="w4-s1_0.22" depart="99.00" departLane="OrigionW4_0" departPos="5.10" departSpeed="0.00" departDelay="0.00" arrival="252.00" arrivalLane="DestinationS1_1" arrivalPos="373.48" arrivalSpeed="25.02" duration="153.00" routeLength="2089.17" waitingTime="42.00" waitingCount="2" stopTime="0.00" timeLoss="70.99" rerouteNo="0" devices="tripinfo_w4-s1_0.22" vType="DEFAULT_VEHTYPE" speedFactor="0.92" vaporized=""/>
    <tripinfo id="s1-w4_0.20" depart="90.00" departLane="OrigionS1_0" departPos="5.10" departSpeed="0.00" departDelay="0.00" arrival="253.00" arrivalLane="DestinationW4_0" arrivalPos="242.47" arrivalSpeed="25.17" duration="163.00" routeLength="2089.17" waitingTime="59.00" waitingCount="2" stopTime="0.00" timeLoss="80.31" rerouteNo="0" devices="tripinfo_s1-w4_0.20" vType="DEFAULT_VEHTYPE" speedFactor="0.91" vaporized=""/>
    <tripinfo id="s1-w4_0.21" depart="94.00" departLane="OrigionS1_0" departPos="5.10" departSpeed="0.00" departDelay="-0.50" arrival="253.00" arrivalLane="DestinationW4_1" arrivalPos="242.47" arrivalSpeed="25.62" duration="159.00" routeLength="2089.17" waitingTime="54.00" waitingCount="2" stopTime="0.00" timeLoss="77.77" rerouteNo="0" devices="tripinfo_s1-w4_0.21" vType="DEFAULT_VEHTYPE" speedFactor="0.94" vaporized=""/>
    <tripinfo id="w4-s1_0.25" depart="112.00" departLane="OrigionW4_0" departPos="5.10" departSpeed="0.00" departDelay="-0.50" arrival="253.00" arrivalLane="DestinationS1_0" arrivalPos="373.48" arrivalSpeed="22.44" duration="141.00" routeLength="2089.17" waitingTime="24.00" waitingCount="2" stopTime="0.00" timeLoss="51.07" rerouteNo="0" devices="tripinfo_w4-s1_0.25" vType="DEFAULT_VEHTYPE" speedFactor="0.84" vaporized=""/>