<?xml version="1.0" encoding="UTF-8"?>

<!-- generated on 1/14/2019 11:04:11 AM by SUMO gui Version 0.32.0
<?xml version="1.0" encoding="UTF-8"?>

<configuration xmlns:xsi="http://www.w3.org/2001/XMLSchema-instance" xsi:noNamespaceSchemaLocation="http://sumo.dlr.de/xsd/sumoConfiguration.xsd">

    <input>
        <net-file value="Chj_final.net.xml"/>
        <route-files value="Chj_Dynamic.rou.xml"/>
        <additional-files value="loops.xml"/>
    </input>

    <output>
        <queue-output value="queue.xml"/>
        <summary-output value="summary.xml"/>
        <tripinfo-output value="tripinfo.xml"/>
    </output>

    <time>
        <begin value="0"/>
        <end value="3600"/>
    </time>

    <report>
        <xml-validation value="never"/>
        <duration-log.disable value="true"/>
        <no-step-log value="true"/>
    </report>

    <traci_server>
        <remote-port value="2601"/>
    </traci_server>

    <random_number>
        <seed value="100"/>
    </random_number>

</configuration>
-->

<tripinfos xmlns:xsi="http://www.w3.org/2001/XMLSchema-instance" xsi:noNamespaceSchemaLocation="http://sumo.dlr.de/xsd/tripinfo_file.xsd">
    <tripinfo id="s1-w4_0.0" depart="0.00" departLane="OrigionS1_0" departPos="5.10" departSpeed="0.00" departDelay="0.00" arrival="85.00" arrivalLane="DestinationW4_0" arrivalPos="242.47" arrivalSpeed="27.51" duration="85.00" routeLength="2089.17" waitSteps="0" timeLoss="8.89" rerouteNo="0" devices="tripinfo_s1-w4_0.0" vType="DEFAULT_VEHTYPE" speedFactor="1.00" vaporized=""/>
    <tripinfo id="w4-s1_0.1" depart="3.00" departLane="OrigionW4_0" departPos="5.10" departSpeed="0.00" departDelay="-0.60" arrival="126.00" arrivalLane="DestinationS1_1" arrivalPos="373.48" arrivalSpeed="27.29" duration="123.00" routeLength="2089.17" waitSteps="17" timeLoss="47.68" rerouteNo="0" devices="tripinfo_w4-s1_0.1" vType="DEFAULT_VEHTYPE" speedFactor="1.00" vaporized=""/>
    <tripinfo id="w4-s1_0.0" depart="0.00" departLane="OrigionW4_0" departPos="5.10" departSpeed="0.00" departDelay="0.00" arrival="127.00" arrivalLane="DestinationS1_0" arrivalPos="373.48" arrivalSpeed="27.05" duration="127.00" routeLength="2089.17" waitSteps="22" timeLoss="51.39" rerouteNo="0" devices="tripinfo_w4-s1_0.0" vType="DEFAULT_VEHTYPE" speedFactor="1.00" vaporized=""/>
    <tripinfo id="w4-s1_0.2" depart="7.00" departLane="OrigionW4_0" departPos="5.10" departSpeed="0.00" departDelay="-0.20" arrival="128.00" arrivalLane="DestinationS1_1" arrivalPos="373.48" arrivalSpeed="27.35" duration="121.00" routeLength="2089.17" waitSteps="15" timeLoss="45.26" rerouteNo="0" devices="tripinfo_w4-s1_0.2" vType="DEFAULT_VEHTYPE" speedFactor="1.00" vaporized=""/>
    <tripinfo id="w4-s1_0.3" depart="10.00" departLane="OrigionW4_0" departPos="5.10" departSpeed="0.00" departDelay="-0.80" arrival="129.00" arrivalLane="DestinationS1_0" arrivalPos="373.48" arrivalSpeed="26.66" duration="119.00" routeLength="2089.17" waitSteps="16" timeLoss="42.85" rerouteNo="0" devices="tripinfo_w4-s1_0.3" vType="DEFAULT_VEHTYPE" speedFactor="1.00" vaporized=""/>
    <tripinfo id="w4-s1_0.4" depart="14.00" departLane="OrigionW4_0" departPos="5.10" departSpeed="0.00" departDelay="-0.40" arrival="130.00" arrivalLane="DestinationS1_1" arrivalPos="373.48" arrivalSpeed="27.17" duration="116.00" routeLength="2089.17" waitSteps="13" timeLoss="40.19" rerouteNo="0" devices="tripinfo_w4-s1_0.4" vType="DEFAULT_VEHTYPE" speedFactor="1.00" vaporized=""/>
    <tripinfo id="w4-s1_0.5" depart="18.00" departLane="OrigionW4_0" departPos="5.10" departSpeed="0.00" departDelay="0.00" arrival="131.00" arrivalLane="DestinationS1_0" arrivalPos="373.48" arrivalSpeed="27.42" duration="113.00" routeLength="2089.17" waitSteps="11" timeLoss="37.06" rerouteNo="0" devices="tripinfo_w4-s1_0.5" vType="DEFAULT_VEHTYPE" speedFactor="1.00" vaporized=""/>
    <tripinfo id="w4-s1_0.8" depart="28.00" departLane="OrigionW4_0" departPos="5.10" departSpeed="0.00" departDelay="-0.80" arrival="132.00" arrivalLane="DestinationS1_0" arrivalPos="373.48" arrivalSpeed="26.98" duration="104.00" routeLength="2089.17" waitSteps="7" timeLoss="28.77" rerouteNo="0" devices="tripinfo_w4-s1_0.8" vType="DEFAULT_VEHTYPE" speedFactor="1.00" vaporized=""/>
    <tripinfo id="w4-s1_0.6" depart="21.00" departLane="OrigionW4_0" departPos="5.10" departSpeed="0.00" departDelay="-0.60" arrival="132.00" arrivalLane="DestinationS1_1" arrivalPos="373.48" arrivalSpeed="27.09" duration="111.00" routeLength="2089.17" waitSteps="12" timeLoss="35.33" rerouteNo="0" devices="tripinfo_w4-s1_0.6" vType="DEFAULT_VEHTYPE" speedFactor="1.00" vaporized=""/>
    <tripinfo id="e5-e1_0.0" depart="0.00" departLane="OrigionE5_0" departPos="5.10" departSpeed="0.00" departDelay="0.00" arrival="132.00" arrivalLane="DestinationE1_0" arrivalPos="250.56" arrivalSpeed="21.16" duration="132.00" routeLength="2162.05" waitSteps="4" timeLoss="23.31" rerouteNo="0" devices="tripinfo_e5-e1_0.0" vType="DEFAULT_VEHTYPE" speedFactor="1.00" vaporized=""/>
    <tripinfo id="s1-w4_0.2" depart="7.00" departLane="OrigionS1_0" departPos="5.10" departSpeed="0.00" departDelay="-0.20" arrival="133.00" arrivalLane="DestinationW4_1" arrivalPos="242.47" arrivalSpeed="27.41" duration="126.00" routeLength="2089.17" waitSteps="31" timeLoss="49.95" rerouteNo="0" devices="tripinfo_s1-w4_0.2" vType="DEFAULT_VEHTYPE" speedFactor="1.00" vaporized=""/>
    <tripinfo id="s1-w4_0.1" depart="3.00" departLane="OrigionS1_0" departPos="5.10" departSpeed="0.00" departDelay="-0.60" arrival="134.00" arrivalLane="DestinationW4_0" arrivalPos="242.47" arrivalSpeed="27.04" duration="131.00" routeLength="2089.17" waitSteps="39" timeLoss="54.58" rerouteNo="0" devices="tripinfo_s1-w4_0.1" vType="DEFAULT_VEHTYPE" speedFactor="1.00" vaporized=""/>
    <tripinfo id="s1-w4_0.3" depart="10.00" departLane="OrigionS1_0" departPos="5.10" departSpeed="0.00" departDelay="-0.80" arrival="134.00" arrivalLane="DestinationW4_1" arrivalPos="242.47" arrivalSpeed="26.69" duration="124.00" routeLength="2089.17" waitSteps="29" timeLoss="48.42" rerouteNo="0" devices="tripinfo_s1-w4_0.3" vType="DEFAULT_VEHTYPE" speedFactor="1.00" vaporized=""/>
    <tripinfo id="w4-s1_0.7" depart="25.00" departLane="OrigionW4_0" departPos="5.10" departSpeed="0.00" departDelay="-0.20" arrival="134.00" arrivalLane="DestinationS1_0" arrivalPos="373.48" arrivalSpeed="27.69" duration="109.00" routeLength="2089.17" waitSteps="11" timeLoss="33.21" rerouteNo="0" devices="tripinfo_w4-s1_0.7" vType="DEFAULT_VEHTYPE" speedFactor="1.00" vaporized=""/>
    <tripinfo id="s1-w4_0.4" depart="14.00" departLane="OrigionS1_0" departPos="5.10" departSpeed="0.00" departDelay="-0.40" arrival="135.00" arrivalLane="DestinationW4_0" arrivalPos="242.47" arrivalSpeed="27.15" duration="121.00" routeLength="2089.17" waitSteps="23" timeLoss="45.46" rerouteNo="0" devices="tripinfo_s1-w4_0.4" vType="DEFAULT_VEHTYPE" speedFactor="1.00" vaporized=""/>
    <tripinfo id="s1-w4_0.5" depart="18.00" departLane="OrigionS1_0" departPos="5.10" departSpeed="0.00" departDelay="0.00" arrival="136.00" arrivalLane="DestinationW4_1" arrivalPos="242.47" arrivalSpeed="27.17" duration="118.00" routeLength="2089.17" waitSteps="22" timeLoss="41.96" rerouteNo="0" devices="tripinfo_s1-w4_0.5" vType="DEFAULT_VEHTYPE" speedFactor="1.00" vaporized=""/>
    <tripinfo id="s1-w4_0.6" depart="21.00" departLane="OrigionS1_0" departPos="5.10" departSpeed="0.00" departDelay="-0.60" arrival="137.00" arrivalLane="DestinationW4_0" arrivalPos="242.47" arrivalSpeed="27.47" duration="116.00" routeLength="2089.17" waitSteps="20" timeLoss="40.11" rerouteNo="0" devices="tripinfo_s1-w4_0.6" vType="DEFAULT_VEHTYPE" speedFactor="1.00" vaporized=""/>
    <tripinfo id="s1-w4_0.12" depart="43.00" departLane="OrigionS1_0" departPos="5.10" departSpeed="0.00" departDelay="-0.20" arrival="137.00" arrivalLane="DestinationW4_1" arrivalPos="242.47" arrivalSpeed="27.02" duration="94.00" routeLength="2089.17" waitSteps="9" timeLoss="31.92" rerouteNo="0" devices="tripinfo_s1-w4_0.12" vType="DEFAULT_VEHTYPE" speedFactor="1.00" vaporized=""/>
    <tripinfo id="s1-w4_0.11" depart="39.00" departLane="OrigionS1_0" departPos="5.10" departSpeed="0.00" departDelay="-0.60" arrival="141.00" arrivalLane="DestinationW4_1" arrivalPos="242.47" arrivalSpeed="26.85" duration="102.00" routeLength="2089.17" waitSteps="13" timeLoss="34.75" rerouteNo="0" devices="tripinfo_s1-w4_0.11" vType="DEFAULT_VEHTYPE" speedFactor="1.00" vaporized=""/>
    <tripinfo id="s1-w4_0.7" depart="25.00" departLane="OrigionS1_0" departPos="5.10" departSpeed="0.00" departDelay="-0.20" arrival="145.00" arrivalLane="DestinationW4_0" arrivalPos="242.47" arrivalSpeed="26.58" duration="120.00" routeLength="2089.17" waitSteps="29" timeLoss="44.44" rerouteNo="0" devices="tripinfo_s1-w4_0.7" vType="DEFAULT_VEHTYPE" speedFactor="1.00" vaporized=""/>
    <tripinfo id="s1-w4_0.8" depart="28.00" departLane="OrigionS1_0" departPos="5.10" departSpeed="0.00" departDelay="-0.80" arrival="145.00" arrivalLane="DestinationW4_1" arrivalPos="242.47" arrivalSpeed="27.72" duration="117.00" routeLength="2089.17" waitSteps="22" timeLoss="40.96" rerouteNo="0" devices="tripinfo_s1-w4_0.8" vType="DEFAULT_VEHTYPE" speedFactor="1.00" vaporized=""/>
    <tripinfo id="s1-w4_0.13" depart="46.00" departLane="OrigionS1_0" departPos="5.10" departSpeed="0.00" departDelay="-0.80" arrival="161.00" arrivalLane="DestinationW4_0" arrivalPos="242.47" arrivalSpeed="26.68" duration="115.00" routeLength="2089.17" waitSteps="6" timeLoss="30.32" rerouteNo="0" devices="tripinfo_s1-w4_0.13" vType="DEFAULT_VEHTYPE" speedFactor="1.00" vaporized=""/>
    <tripinfo id="e5-e1_0.1" depart="6.00" departLane="OrigionE5_0" departPos="5.10" departSpeed="0.00" departDelay="0.00" arrival="167.00" arrivalLane="DestinationE1_0" arrivalPos="250.56" arrivalSpeed="21.21" duration="161.00" routeLength="2162.05" waitSteps="28" timeLoss="52.28" rerouteNo="0" devices="tripinfo_e5-e1_0.1" vType="DEFAULT_VEHTYPE" speedFactor="1.00" vaporized=""/>
    <tripinfo id="w4-s1_0.10" depart="36.00" departLane="OrigionW4_0" departPos="5.10" departSpeed="0.00" departDelay="0.00" arrival="186.00" arrivalLane="DestinationS1_1" arrivalPos="373.48" arrivalSpeed="27.13" duration="150.00" routeLength="2089.17" waitSteps="46" timeLoss="74.67" rerouteNo="0" devices="tripinfo_w4-s1_0.10" vType="DEFAULT_VEHTYPE" speedFactor="1.00" vaporized=""/>
    <tripinfo id="w4-s1_0.9" depart="32.00" departLane="OrigionW4_0" departPos="5.10" departSpeed="0.00" departDelay="-0.40" arrival="186.00" arrivalLane="DestinationS1_0" arrivalPos="373.48" arrivalSpeed="26.52" duration="154.00" routeLength="2089.17" waitSteps="50" timeLoss="78.26" rerouteNo="0" devices="tripinfo_w4-s1_0.9" vType="DEFAULT_VEHTYPE" speedFactor="1.00" vaporized=""/>
    <tripinfo id="w4-s1_0.12" depart="43.00" departLane="OrigionW4_0" departPos="5.10" departSpeed="0.00" departDelay="-0.20" arrival="188.00" arrivalLane="DestinationS1_1" arrivalPos="373.48" arrivalSpeed="26.78" duration="145.00" routeLength="2089.17" waitSteps="42" timeLoss="69.31" rerouteNo="0" devices="tripinfo_w4-s1_0.12" vType="DEFAULT_VEHTYPE" speedFactor="1.00" vaporized=""/>
    <tripinfo id="w4-s1_0.11" depart="39.00" departLane="OrigionW4_0" departPos="5.10" departSpeed="0.00" departDelay="-0.60" arrival="188.00" arrivalLane="DestinationS1_0" arrivalPos="373.48" arrivalSpeed="26.56" duration="149.00" routeLength="2089.17" waitSteps="43" timeLoss="73.22" rerouteNo="0" devices="tripinfo_w4-s1_0.11" vType="DEFAULT_VEHTYPE" speedFactor="1.00" vaporized=""/>
    <tripinfo id="w4-s1_0.13" depart="46.00" departLane="OrigionW4_0" departPos="5.10" departSpeed="0.00" departDelay="-0.80" arrival="190.00" arrivalLane="DestinationS1_1" arrivalPos="373.48" arrivalSpeed="27.14" duration="144.00" routeLength="2089.17" waitSteps="34" timeLoss="68.04" rerouteNo="0" devices="tripinfo_w4-s1_0.13" vType="DEFAULT_VEHTYPE" speedFactor="1.00" vaporized=""/>
    <tripinfo id="w4-s1_0.14" depart="50.00" departLane="OrigionW4_0" departPos="5.10" departSpeed="0.00" departDelay="-0.40" arrival="190.00" arrivalLane="DestinationS1_0" arrivalPos="373.48" arrivalSpeed="27.00" duration="140.00" routeLength="2089.17" waitSteps="26" timeLoss="64.28" rerouteNo="0" devices="tripinfo_w4-s1_0.14" vType="DEFAULT_VEHTYPE" speedFactor="1.00" vaporized=""/>
    <tripinfo id="w4-s1_0.15" depart="54.00" departLane="OrigionW4_0" departPos="5.10" departSpeed="0.00" departDelay="0.00" arrival="192.00" arrivalLane="DestinationS1_1" arrivalPos="373.48" arrivalSpeed="26.84" duration="138.00" routeLength="2089.17" waitSteps="28" timeLoss="62.01" rerouteNo="0" devices="tripinfo_w4-s1_0.15" vType="DEFAULT_VEHTYPE" speedFactor="1.00" vaporized=""/>
    <tripinfo id="w4-s1_0.18" depart="64.00" departLane="OrigionW4_0" departPos="5.10" departSpeed="0.00" departDelay="-0.80" arrival="192.00" arrivalLane="DestinationS1_0" arrivalPos="373.48" arrivalSpeed="27.14" duration="128.00" routeLength="2089.17" waitSteps="19" timeLoss="51.85" rerouteNo="0" devices="tripinfo_w4-s1_0.18" vType="DEFAULT_VEHTYPE" speedFactor="1.00" vaporized=""/>
    <tripinfo id="s1-w4_0.9" depart="32.00" departLane="OrigionS1_0" departPos="5.10" departSpeed="0.00" departDelay="-0.40" arrival="193.00" arrivalLane="DestinationW4_0" arrivalPos="242.47" arrivalSpeed="27.40" duration="161.00" routeLength="2089.17" waitSteps="59" timeLoss="84.55" rerouteNo="0" devices="tripinfo_s1-w4_0.9" vType="DEFAULT_VEHTYPE" speedFactor="1.00" vaporized=""/>
    <tripinfo id="s1-w4_0.10" depart="36.00" departLane="OrigionS1_0" departPos="5.10" departSpeed="0.00" departDelay="0.00" arrival="193.00" arrivalLane="DestinationW4_1" arrivalPos="242.47" arrivalSpeed="27.07" duration="157.00" routeLength="2089.17" waitSteps="55" timeLoss="81.13" rerouteNo="0" devices="tripinfo_s1-w4_0.10" vType="DEFAULT_VEHTYPE" speedFactor="1.00" vaporized=""/>
    <tripinfo id="w4-s1_0.17" depart="61.00" departLane="OrigionW4_0" departPos="5.10" departSpeed="0.00" departDelay="-0.20" arrival="193.00" arrivalLane="DestinationS1_0" arrivalPos="373.48" arrivalSpeed="26.57" duration="132.00" routeLength="2089.17" waitSteps="15" timeLoss="56.71" rerouteNo="0" devices="tripinfo_w4-s1_0.17" vType="DEFAULT_VEHTYPE" speedFactor="1.00" vaporized=""/>
    <tripinfo id="s1-w4_0.16" depart="57.00" departLane="OrigionS1_0" departPos="5.10" departSpeed="0.00" departDelay="-0.60" arrival="194.00" arrivalLane="DestinationW4_0" arrivalPos="242.47" arrivalSpeed="27.43" duration="137.00" routeLength="2089.17" waitSteps="31" timeLoss="61.76" rerouteNo="0" devices="tripinfo_s1-w4_0.16" vType="DEFAULT_VEHTYPE" speedFactor="1.00" vaporized=""/>
    <tripinfo id="w4-s1_0.16" depart="57.00" departLane="OrigionW4_0" departPos="5.10" departSpeed="0.00" departDelay="-0.60" arrival="194.00" arrivalLane="DestinationS1_1" arrivalPos="373.48" arrivalSpeed="26.83" duration="137.00" routeLength="2089.17" waitSteps="24" timeLoss="60.94" rerouteNo="0" devices="tripinfo_w4-s1_0.16" vType="DEFAULT_VEHTYPE" speedFactor="1.00" vaporized=""/>
    <tripinfo id="s1-w4_0.14" depart="50.00" departLane="OrigionS1_0" departPos="5.10" departSpeed="0.00" departDelay="-0.40" arrival="195.00" arrivalLane="DestinationW4_1" arrivalPos="242.47" arrivalSpeed="26.52" duration="145.00" routeLength="2089.17" waitSteps="37" timeLoss="69.32" rerouteNo="0" devices="tripinfo_s1-w4_0.14" vType="DEFAULT_VEHTYPE" speedFactor="1.00" vaporized=""/>
    <tripinfo id="w4-s1_0.19" depart="68.00" departLane="OrigionW4_0" departPos="5.10" departSpeed="0.00" departDelay="-0.40" arrival="195.00" arrivalLane="DestinationS1_1" arrivalPos="373.48" arrivalSpeed="27.75" duration="127.00" routeLength="2089.17" waitSteps="15" timeLoss="51.69" rerouteNo="0" devices="tripinfo_w4-s1_0.19" vType="DEFAULT_VEHTYPE" speedFactor="1.00" vaporized=""/>
    <tripinfo id="w4-s1_0.21" depart="75.00" departLane="OrigionW4_0" departPos="5.10" departSpeed="0.00" departDelay="-0.60" arrival="195.00" arrivalLane="DestinationS1_0" arrivalPos="373.48" arrivalSpeed="26.70" duration="120.00" routeLength="2089.17" waitSteps="12" timeLoss="44.29" rerouteNo="0" devices="tripinfo_w4-s1_0.21" vType="DEFAULT_VEHTYPE" speedFactor="1.00" vaporized=""/>
    <tripinfo id="e5-e1_0.3" depart="18.00" departLane="OrigionE5_0" departPos="5.10" departSpeed="0.00" departDelay="0.00" arrival="195.00" arrivalLane="DestinationE1_0" arrivalPos="250.56" arrivalSpeed="21.37" duration="177.00" routeLength="2162.05" waitSteps="37" timeLoss="69.19" rerouteNo="0" devices="tripinfo_e5-e1_0.3" vType="DEFAULT_VEHTYPE" speedFactor="1.00" vaporized=""/>
    <tripinfo id="s1-w4_0.18" depart="64.00" departLane="OrigionS1_0" departPos="5.10" departSpeed="0.00" departDelay="-0.80" arrival="196.00" arrivalLane="DestinationW4_0" arrivalPos="242.47" arrivalSpeed="27.17" duration="132.00" routeLength="2089.17" waitSteps="29" timeLoss="56.34" rerouteNo="0" devices="tripinfo_s1-w4_0.18" vType="DEFAULT_VEHTYPE" speedFactor="1.00" vaporized=""/>
    <tripinfo id="w4-s1_0.23" depart="82.00" departLane="OrigionW4_0" departPos="5.10" departSpeed="0.00" departDelay="-0.80" arrival="196.00" arrivalLane="DestinationS1_0" arrivalPos="373.48" arrivalSpeed="27.33" duration="114.00" routeLength="2089.17" waitSteps="10" timeLoss="38.76" rerouteNo="0" devices="tripinfo_w4-s1_0.23" vType="DEFAULT_VEHTYPE" speedFactor="1.00" vaporized=""/>
    <tripinfo id="s1-w4_0.15" depart="54.00" departLane="OrigionS1_0" departPos="5.10" departSpeed="0.00" departDelay="0.00" arrival="197.00" arrivalLane="DestinationW4_1" arrivalPos="242.47" arrivalSpeed="26.94" duration="143.00" routeLength="2089.17" waitSteps="32" timeLoss="66.89" rerouteNo="0" devices="tripinfo_s1-w4_0.15" vType="DEFAULT_VEHTYPE" speedFactor="1.00" vaporized=""/>
    <tripinfo id="w4-s1_0.20" depart="72.00" departLane="OrigionW4_0" departPos="5.10" departSpeed="0.00" departDelay="0.00" arrival="197.00" arrivalLane="DestinationS1_1" arrivalPos="373.48" arrivalSpeed="27.03" duration="125.00" routeLength="2089.17" waitSteps="11" timeLoss="49.29" rerouteNo="0" devices="tripinfo_w4-s1_0.20" vType="DEFAULT_VEHTYPE" speedFactor="1.00" vaporized=""/>
    <tripinfo id="s1-w4_0.19" depart="68.00" departLane="OrigionS1_0" departPos="5.10" departSpeed="0.00" departDelay="-0.40" arrival="198.00" arrivalLane="DestinationW4_0" arrivalPos="242.47" arrivalSpeed="27.71" duration="130.00" routeLength="2089.17" waitSteps="29" timeLoss="53.82" rerouteNo="0" devices="tripinfo_s1-w4_0.19" vType="DEFAULT_VEHTYPE" speedFactor="1.00" vaporized=""/>
    <tripinfo id="s1-w4_0.17" depart="61.00" departLane="OrigionS1_0" departPos="5.10" departSpeed="0.00" departDelay="-0.20" arrival="198.00" arrivalLane="DestinationW4_1" arrivalPos="242.47" arrivalSpeed="27.49" duration="137.00" routeLength="2089.17" waitSteps="31" timeLoss="61.56" rerouteNo="0" devices="tripinfo_s1-w4_0.17" vType="DEFAULT_VEHTYPE" speedFactor="1.00" vaporized=""/>
    <tripinfo id="w4-s1_0.22" depart="79.00" departLane="OrigionW4_0" departPos="5.10" departSpeed="0.00" departDelay="-0.20" arrival="198.00" arrivalLane="DestinationS1_0" arrivalPos="373.48" arrivalSpeed="26.88" duration="119.00" routeLength="2089.17" waitSteps="10" timeLoss="43.53" rerouteNo="0" devices="tripinfo_w4-s1_0.22" vType="DEFAULT_VEHTYPE" speedFactor="1.00" vaporized=""/>
    <tripinfo id="s1-w4_0.23" depart="82.00" departLane="OrigionS1_0" departPos="5.10" departSpeed="0.00" departDelay="-0.80" arrival="199.00" arrivalLane="DestinationW4_0" arrivalPos="242.47" arrivalSpeed="26.50" duration="117.00" routeLength="2089.17" waitSteps="20" timeLoss="41.55" rerouteNo="0" devices="tripinfo_s1-w4_0.23" vType="DEFAULT_VEHTYPE" speedFactor="1.00" vaporized=""/>
    <tripinfo id="w4-s1_0.24" depart="86.00" departLane="OrigionW4_0" departPos="5.10" departSpeed="0.00" departDelay="-0.40" arrival="199.00" arrivalLane="DestinationS1_1" arrivalPos="373.48" arrivalSpeed="27.68" duration="113.00" routeLength="2089.17" waitSteps="8" timeLoss="36.85" rerouteNo="0" devices="tripinfo_w4-s1_0.24" vType="DEFAULT_VEHTYPE" speedFactor="1.00" vaporized=""/>
    <tripinfo id="s1-w4_0.20" depart="72.00" departLane="OrigionS1_0" departPos="5.10" departSpeed="0.00" departDelay="0.00" arrival="200.00" arrivalLane="DestinationW4_1" arrivalPos="242.47" arrivalSpeed="27.58" duration="128.00" routeLength="2089.17" waitSteps="31" timeLoss="52.15" rerouteNo="0" devices="tripinfo_s1-w4_0.20" vType="DEFAULT_VEHTYPE" speedFactor="1.00" vaporized=""/>
    <tripinfo id="s1-w4_0.22" depart="79.00" departLane="OrigionS1_0" departPos="5.10" departSpeed="0.00" departDelay="-0.20" arrival="201.00" arrivalLane="DestinationW4_0" arrivalPos="242.47" arrivalSpeed="27.74" duration="122.00" routeLength="2089.17" waitSteps="19" timeLoss="46.22" rerouteNo="0" devices="tripinfo_s1-w4_0.22" vType="DEFAULT_VEHTYPE" speedFactor="1.00" vaporized=""/>
    <tripinfo id="s1-w4_0.21" depart="75.00" departLane="OrigionS1_0" departPos="5.10" departSpeed="0.00" departDelay="-0.60" arrival="201.00" arrivalLane="DestinationW4_1" arrivalPos="242.47" arrivalSpeed="27.60" duration="126.00" routeLength="2089.17" waitSteps="29" timeLoss="50.65" rerouteNo="0" devices="tripinfo_s1-w4_0.21" vType="DEFAULT_VEHTYPE" speedFactor="1.00" vaporized=""/>
    <tripinfo id="s1-w4_0.24" depart="86.00" departLane="OrigionS1_0" departPos="5.10" departSpeed="0.00" departDelay="-0.40" arrival="204.00" arrivalLane="DestinationW4_0" arrivalPos="242.47" arrivalSpeed="27.73" duration="118.00" routeLength="2089.17" waitSteps="29" timeLoss="41.69" rerouteNo="0" devices="tripinfo_s1-w4_0.24" vType="DEFAULT_VEHTYPE" speedFactor="1.00" vaporized=""/>
    <tripinfo id="s1-w4_0.25" depart="90.00" departLane="OrigionS1_0" departPos="5.10" departSpeed="0.00" departDelay="0.00" arrival="204.00" arrivalLane="DestinationW4_1" arrivalPos="242.47" arrivalSpeed="27.16" duration="114.00" routeLength="2089.17" waitSteps="21" timeLoss="38.72" rerouteNo="0" devices="tripinfo_s1-w4_0.25" vType="DEFAULT_VEHTYPE" speedFactor="1.00" vaporized=""/>
    <tripinfo id="s4-n5_0.0" depart="0.00" departLane="OrigionS4_0" departPos="5.10" departSpeed="0.00" departDelay="0.00" arrival="205.00" arrivalLane="DestinationN5_0" arrivalPos="178.17" arrivalSpeed="13.72" duration="205.00" routeLength="3209.41" waitSteps="25" timeLoss="62.38" rerouteNo="0" devices="tripinfo_s4-n5_0.0" vType="DEFAULT_VEHTYPE" speedFactor="1.00" vaporized=""/>
    <tripinfo id="s4-n5_0.1" depart="3.00" departLane="OrigionS4_0" departPos="5.10" departSpeed="0.00" departDelay="-0.60" arrival="208.00" arrivalLane="DestinationN5_0" arrivalPos="178.17" arrivalSpeed="13.54" duration="205.00" routeLength="3209.41" waitSteps="19" timeLoss="62.10" rerouteNo="0" devices="tripinfo_s4-n5_0.1" vType="DEFAULT_VEHTYPE" speedFactor="1.00" vaporized=""/>
    <tripinfo id="s6-w5_0.0" depart="0.00" departLane="OrigionS6_0" departPos="5.10" departSpeed="0.00" departDelay="0.00" arrival="212.00" arrivalLane="DestinationW5_0" arrivalPos="259.12" arrivalSpeed="13.32" duration="212.00" routeLength="3323.55" waitSteps="53" timeLoss="82.47" rerouteNo="0" devices="tripinfo_s6-w5_0.0" vType="DEFAULT_VEHTYPE" speedFactor="1.00" vaporized=""/>
    <tripinfo id="s1-w4_0.31" depart="111.00" departLane="OrigionS1_0" departPos="5.10" departSpeed="0.00" departDelay="-0.60" arrival="213.00" arrivalLane="DestinationW4_0" arrivalPos="242.47" arrivalSpeed="27.46" duration="102.00" routeLength="2089.17" waitSteps="4" timeLoss="26.12" rerouteNo="0" devices="tripinfo_s1-w4_0.31" vType="DEFAULT_VEHTYPE" speedFactor="1.00" vaporized=""/>
    <tripinfo id="s1-w4_0.30" depart="108.00" departLane="OrigionS1_0" departPos="5.10" departSpeed="0.00" departDelay="0.00" arrival="217.00" arrivalLane="DestinationW4_0" arrivalPos="242.47" arrivalSpeed="27.71" duration="109.00" routeLength="2089.17" waitSteps="5" timeLoss="27.10" rerouteNo="0" devices="tripinfo_s1-w4_0.30" vType="DEFAULT_VEHTYPE" speedFactor="1.00" vaporized=""/>
    <tripinfo id="n2-s8_0.0" depart="0.00" departLane="OrigionN2_0" departPos="5.10" departSpeed="0.00" departDelay="0.00" arrival="217.00" arrivalLane="DestinationS8_0" arrivalPos="419.24" arrivalSpeed="21.35" duration="217.00" routeLength="3729.72" waitSteps="26" timeLoss="61.69" rerouteNo="0" devices="tripinfo_n2-s8_0.0" vType="DEFAULT_VEHTYPE" speedFactor="1.00" vaporized=""/>
    <tripinfo id="n2-s8_0.1" depart="6.00" departLane="OrigionN2_0" departPos="5.10" departSpeed="0.00" departDelay="0.00" arrival="218.00" arrivalLane="DestinationS8_0" arrivalPos="419.24" arrivalSpeed="21.34" duration="212.00" routeLength="3729.72" waitSteps="21" timeLoss="57.48" rerouteNo="0" devices="tripinfo_n2-s8_0.1" vType="DEFAULT_VEHTYPE" speedFactor="1.00" vaporized=""/>
    <tripinfo id="s1-w4_0.28" depart="100.00" departLane="OrigionS1_0" departPos="5.10" departSpeed="0.00" departDelay="-0.80" arrival="220.00" arrivalLane="DestinationW4_1" arrivalPos="242.47" arrivalSpeed="27.76" duration="120.00" routeLength="2089.17" waitSteps="13" timeLoss="34.14" rerouteNo="0" devices="tripinfo_s1-w4_0.28" vType="DEFAULT_VEHTYPE" speedFactor="1.00" vaporized=""/>
    <tripinfo id="n2-s8_0.2" depart="12.00" departLane="OrigionN2_0" departPos="5.10" departSpeed="0.00" departDelay="0.00" arrival="220.00" arrivalLane="DestinationS8_0" arrivalPos="419.24" arrivalSpeed="21.80" duration="208.00" routeLength="3729.72" waitSteps="17" timeLoss="52.98" rerouteNo="0" devices="tripinfo_n2-s8_0.2" vType="DEFAULT_VEHTYPE" speedFactor="1.00" vaporized=""/>
    <tripinfo id="s1-w4_0.29" depart="104.00" departLane="OrigionS1_0" departPos="5.10" departSpeed="0.00" departDelay="-0.40" arrival="221.00" arrivalLane="DestinationW4_0" arrivalPos="242.47" arrivalSpeed="26.57" duration="117.00" routeLength="2089.17" waitSteps="7" timeLoss="29.23" rerouteNo="0" devices="tripinfo_s1-w4_0.29" vType="DEFAULT_VEHTYPE" speedFactor="1.00" vaporized=""/>
    <tripinfo id="n2-s8_0.3" depart="18.00" departLane="OrigionN2_0" departPos="5.10" departSpeed="0.00" departDelay="0.00" arrival="221.00" arrivalLane="DestinationS8_0" arrivalPos="419.24" arrivalSpeed="22.07" duration="203.00" routeLength="3729.72" waitSteps="14" timeLoss="48.56" rerouteNo="0" devices="tripinfo_n2-s8_0.3" vType="DEFAULT_VEHTYPE" speedFactor="1.00" vaporized=""/>
    <tripinfo id="n2-s8_0.4" depart="24.00" departLane="OrigionN2_0" departPos="5.10" departSpeed="0.00" departDelay="0.00" arrival="223.00" arrivalLane="DestinationS8_0" arrivalPos="419.24" arrivalSpeed="21.19" duration="199.00" routeLength="3729.72" waitSteps="13" timeLoss="44.28" rerouteNo="0" devices="tripinfo_n2-s8_0.4" vType="DEFAULT_VEHTYPE" speedFactor="1.00" vaporized=""/>
    <tripinfo id="n2-s8_0.5" depart="30.00" departLane="OrigionN2_0" departPos="5.10" departSpeed="0.00" departDelay="0.00" arrival="225.00" arrivalLane="DestinationS8_0" arrivalPos="419.24" arrivalSpeed="21.45" duration="195.00" routeLength="3729.72" waitSteps="11" timeLoss="39.84" rerouteNo="0" devices="tripinfo_n2-s8_0.5" vType="DEFAULT_VEHTYPE" speedFactor="1.00" vaporized=""/>
    <tripinfo id="e5-e1_0.2" depart="12.00" departLane="OrigionE5_0" departPos="5.10" departSpeed="0.00" departDelay="0.00" arrival="228.00" arrivalLane="DestinationE1_0" arrivalPos="250.56" arrivalSpeed="21.40" duration="216.00" routeLength="2162.05" waitSteps="78" timeLoss="106.75" rerouteNo="0" devices="tripinfo_e5-e1_0.2" vType="DEFAULT_VEHTYPE" speedFactor="1.00" vaporized=""/>
    <tripinfo id="e5-e1_0.4" depart="24.00" departLane="OrigionE5_0" departPos="5.10" departSpeed="0.00" departDelay="0.00" arrival="229.00" arrivalLane="DestinationE1_0" arrivalPos="250.56" arrivalSpeed="21.22" duration="205.00" routeLength="2162.05" waitSteps="54" timeLoss="96.99" rerouteNo="0" devices="tripinfo_e5-e1_0.4" vType="DEFAULT_VEHTYPE" speedFactor="1.00" vaporized=""/>
    <tripinfo id="e5-e1_0.5" depart="30.00" departLane="OrigionE5_0" departPos="5.10" departSpeed="0.00" departDelay="0.00" arrival="231.00" arrivalLane="DestinationE1_0" arrivalPos="250.56" arrivalSpeed="22.01" duration="201.00" routeLength="2162.05" waitSteps="49" timeLoss="92.40" rerouteNo="0" devices="tripinfo_e5-e1_0.5" vType="DEFAULT_VEHTYPE" speedFactor="1.00" vaporized=""/>
    <tripinfo id="n4-w2_0.2" depart="7.00" departLane="OrigionN4_0" departPos="5.10" departSpeed="0.00" departDelay="-0.20" arrival="233.00" arrivalLane="DestinationW2_0" arrivalPos="782.62" arrivalSpeed="21.33" duration="226.00" routeLength="3590.24" waitSteps="42" timeLoss="79.30" rerouteNo="0" devices="tripinfo_n4-w2_0.2" vType="DEFAULT_VEHTYPE" speedFactor="1.00" vaporized=""/>
    <tripinfo id="e5-e1_0.6" depart="36.00" departLane="OrigionE5_0" departPos="5.10" departSpeed="0.00" departDelay="0.00" arrival="233.00" arrivalLane="DestinationE1_0" arrivalPos="250.56" arrivalSpeed="21.50" duration="197.00" routeLength="2162.05" waitSteps="43" timeLoss="88.33" rerouteNo="0" devices="tripinfo_e5-e1_0.6" vType="DEFAULT_VEHTYPE" speedFactor="1.00" vaporized=""/>
    <tripinfo id="e5-e1_0.7" depart="42.00" departLane="OrigionE5_0" departPos="5.10" departSpeed="0.00" departDelay="0.00" arrival="234.00" arrivalLane="DestinationE1_0" arrivalPos="250.56" arrivalSpeed="21.05" duration="192.00" routeLength="2162.05" waitSteps="39" timeLoss="83.88" rerouteNo="0" devices="tripinfo_e5-e1_0.7" vType="DEFAULT_VEHTYPE" speedFactor="1.00" vaporized=""/>
    <tripinfo id="n4-w2_0.0" depart="0.00" departLane="OrigionN4_0" departPos="5.10" departSpeed="0.00" departDelay="0.00" arrival="236.00" arrivalLane="DestinationW2_0" arrivalPos="782.62" arrivalSpeed="21.51" duration="236.00" routeLength="3590.24" waitSteps="48" timeLoss="81.58" rerouteNo="0" devices="tripinfo_n4-w2_0.0" vType="DEFAULT_VEHTYPE" speedFactor="1.00" vaporized=""/>